
     Program PWSCF v.6.4.1 starts on  7Sep2019 at 20:18:23 

     This program is part of the open-source Quantum ESPRESSO suite
     for quantum simulation of materials; please cite
         "P. Giannozzi et al., J. Phys.:Condens. Matter 21 395502 (2009);
         "P. Giannozzi et al., J. Phys.:Condens. Matter 29 465901 (2017);
          URL http://www.quantum-espresso.org", 
     in publications or presentations arising from this work. More details at
     http://www.quantum-espresso.org/quote

     Parallel version (MPI), running on     2 processors

     MPI processes distributed on     1 nodes
     K-points division:     npool     =       2
     Reading input from Si.Fd-3m.8-atom.vc-relax.in

     Current dimensions of program PWSCF are:
     Max number of different atomic species (ntypx) = 10
     Max number of k-points (npk) =  40000
     Max angular momentum in pseudopotentials (lmaxx) =  3
               file Si.pbesol-n-kjpaw_psl.1.0.0.UPF: wavefunction(s)  3S 3P renormalized

     Subspace diagonalization in iterative solution of the eigenvalue problem:
     a serial algorithm will be used

     Found symmetry operation: I + (  0.0000 -0.5000 -0.5000)
     This is a supercell, fractional translations are disabled
 
     G-vector sticks info
     --------------------
     sticks:   dense  smooth     PW     G-vecs:    dense   smooth      PW
     Sum        1533    1533    437                44713    44713    7075
 


     bravais-lattice index     =            1
     lattice parameter (alat)  =      10.3200  a.u.
     unit-cell volume          =    1099.1048 (a.u.)^3
     number of atoms/cell      =            8
     number of atomic types    =            1
     number of electrons       =        32.00
     number of Kohn-Sham states=           16
     kinetic-energy cutoff     =      45.0000  Ry
     charge density cutoff     =     180.0000  Ry
     convergence threshold     =      1.0E-12
     mixing beta               =       0.7000
     number of iterations used =            8  plain     mixing
     Exchange-correlation      = SLA PW PSX PSC ( 1  4 10  8 0 0)
     Using LIBXC version       =    4   3   4
     nstep                     =           50


     celldm(1)=  10.320000  celldm(2)=   0.000000  celldm(3)=   0.000000
     celldm(4)=   0.000000  celldm(5)=   0.000000  celldm(6)=   0.000000

     crystal axes: (cart. coord. in units of alat)
               a(1) = (   1.000000   0.000000   0.000000 )  
               a(2) = (   0.000000   1.000000   0.000000 )  
               a(3) = (   0.000000   0.000000   1.000000 )  

     reciprocal axes: (cart. coord. in units 2 pi/alat)
               b(1) = (  1.000000  0.000000  0.000000 )  
               b(2) = (  0.000000  1.000000  0.000000 )  
               b(3) = (  0.000000  0.000000  1.000000 )  


     PseudoPot. # 1 for Si read from file:
     /share/pseudo/Si.pbesol-n-kjpaw_psl.1.0.0.UPF
     MD5 check sum: 9fbd692c527d147d9ad0870b71777ff4
     Pseudo is Projector augmented-wave + core cor, Zval =  4.0
     Generated using "atomic" code by A. Dal Corso v.6.3
     Shape of augmentation charge: PSQ
     Using radial grid of 1141 points,  6 beta functions with: 
                l(1) =   0
                l(2) =   0
                l(3) =   1
                l(4) =   1
                l(5) =   2
                l(6) =   2
     Q(r) pseudized with 0 coefficients 


     atomic species   valence    mass     pseudopotential
        Si             4.00    28.08600     Si( 1.00)

      cell mass =   0.00100 AMU/(a.u.)^2 

     24 Sym. Ops. (no inversion) found



   Cartesian axes

     site n.     atom                  positions (alat units)
         1           Si  tau(   1) = (   0.0000000   0.0000000   0.0000000  )
         2           Si  tau(   2) = (   0.0000000   0.5000000   0.5000000  )
         3           Si  tau(   3) = (   0.5000000   0.0000000   0.5000000  )
         4           Si  tau(   4) = (   0.5000000   0.5000000   0.0000000  )
         5           Si  tau(   5) = (   0.2500000   0.2500000   0.2500000  )
         6           Si  tau(   6) = (   0.2500000   0.7500000   0.7500000  )
         7           Si  tau(   7) = (   0.7500000   0.2500000   0.7500000  )
         8           Si  tau(   8) = (   0.7500000   0.7500000   0.2500000  )

     number of k points=    20
                       cart. coord. in units 2pi/alat
        k(    1) = (   0.0000000   0.0000000   0.0000000), wk =   0.0092593
        k(    2) = (   0.0000000   0.0000000   0.1666667), wk =   0.0555556
        k(    3) = (   0.0000000   0.0000000   0.3333333), wk =   0.0555556
        k(    4) = (   0.0000000   0.0000000  -0.5000000), wk =   0.0277778
        k(    5) = (   0.0000000   0.1666667   0.1666667), wk =   0.1111111
        k(    6) = (   0.0000000   0.1666667   0.3333333), wk =   0.2222222
        k(    7) = (   0.0000000   0.1666667  -0.5000000), wk =   0.1111111
        k(    8) = (   0.0000000   0.3333333   0.3333333), wk =   0.1111111
        k(    9) = (   0.0000000   0.3333333  -0.5000000), wk =   0.1111111
        k(   10) = (   0.0000000  -0.5000000  -0.5000000), wk =   0.0277778
        k(   11) = (   0.1666667   0.1666667   0.1666667), wk =   0.0740741
        k(   12) = (   0.1666667   0.1666667   0.3333333), wk =   0.2222222
        k(   13) = (   0.1666667   0.1666667  -0.5000000), wk =   0.1111111
        k(   14) = (   0.1666667   0.3333333   0.3333333), wk =   0.2222222
        k(   15) = (   0.1666667   0.3333333  -0.5000000), wk =   0.2222222
        k(   16) = (   0.1666667  -0.5000000  -0.5000000), wk =   0.0555556
        k(   17) = (   0.3333333   0.3333333   0.3333333), wk =   0.0740741
        k(   18) = (   0.3333333   0.3333333  -0.5000000), wk =   0.1111111
        k(   19) = (   0.3333333  -0.5000000  -0.5000000), wk =   0.0555556
        k(   20) = (  -0.5000000  -0.5000000  -0.5000000), wk =   0.0092593

     Dense  grid:    44713 G-vectors     FFT dimensions: (  45,  45,  45)

     Estimated max dynamical RAM per process >     127.07 MB

     Estimated total dynamical RAM >     254.14 MB

     Initial potential from superposition of free atoms

     starting charge   31.99568, renormalised to   32.00000
     Starting wfcs are   32 randomized atomic wfcs
     Checking if some PAW data can be deallocated... 

     total cpu time spent up to now is       14.2 secs

     Self-consistent Calculation

     iteration #  1     ecut=    45.00 Ry     beta= 0.70
     CG style diagonalization
     ethr =  1.00E-02,  avg # of iterations =  2.9

     Threshold (ethr) on eigenvalues was too large:
     Diagonalizing with lowered threshold

     CG style diagonalization
     ethr =  6.65E-04,  avg # of iterations =  2.2

     total cpu time spent up to now is       59.2 secs

     total energy              =    -365.09388052 Ry
     Harris-Foulkes estimate   =    -365.15978665 Ry
     estimated scf accuracy    <       0.20953471 Ry

     iteration #  2     ecut=    45.00 Ry     beta= 0.70
     CG style diagonalization
     ethr =  6.55E-04,  avg # of iterations =  3.0

     total cpu time spent up to now is       81.9 secs

     total energy              =    -365.10371095 Ry
     Harris-Foulkes estimate   =    -365.10542591 Ry
     estimated scf accuracy    <       0.00920431 Ry

     iteration #  3     ecut=    45.00 Ry     beta= 0.70
     CG style diagonalization
     ethr =  2.88E-05,  avg # of iterations =  4.3

     total cpu time spent up to now is      114.4 secs

     total energy              =    -365.10728576 Ry
     Harris-Foulkes estimate   =    -365.10766934 Ry
     estimated scf accuracy    <       0.00084257 Ry

     iteration #  4     ecut=    45.00 Ry     beta= 0.70
     CG style diagonalization
     ethr =  2.63E-06,  avg # of iterations =  4.5

     total cpu time spent up to now is      148.2 secs

     total energy              =    -365.10737633 Ry
     Harris-Foulkes estimate   =    -365.10785780 Ry
     estimated scf accuracy    <       0.00087141 Ry

     iteration #  5     ecut=    45.00 Ry     beta= 0.70
     CG style diagonalization
     ethr =  2.63E-06,  avg # of iterations =  3.7

     total cpu time spent up to now is      176.1 secs

     total energy              =    -365.10748483 Ry
     Harris-Foulkes estimate   =    -365.10748501 Ry
     estimated scf accuracy    <       0.00000050 Ry

     iteration #  6     ecut=    45.00 Ry     beta= 0.70
     CG style diagonalization
     c_bands:  2 eigenvalues not converged
     c_bands:  1 eigenvalues not converged
     ethr =  1.57E-09,  avg # of iterations =  8.2

     total cpu time spent up to now is      237.4 secs

     total energy              =    -365.10750331 Ry
     Harris-Foulkes estimate   =    -365.10750331 Ry
     estimated scf accuracy    <       0.00000025 Ry

     iteration #  7     ecut=    45.00 Ry     beta= 0.70
     CG style diagonalization
     ethr =  7.92E-10,  avg # of iterations =  3.1

     total cpu time spent up to now is      260.7 secs

     total energy              =    -365.10750328 Ry
     Harris-Foulkes estimate   =    -365.10750332 Ry
     estimated scf accuracy    <       0.00000014 Ry

     iteration #  8     ecut=    45.00 Ry     beta= 0.70
     CG style diagonalization
     ethr =  4.25E-10,  avg # of iterations =  3.5

     total cpu time spent up to now is      286.9 secs

     total energy              =    -365.10750329 Ry
     Harris-Foulkes estimate   =    -365.10750330 Ry
     estimated scf accuracy    <          7.0E-09 Ry

     iteration #  9     ecut=    45.00 Ry     beta= 0.70
     CG style diagonalization
     ethr =  2.18E-11,  avg # of iterations =  4.8

     total cpu time spent up to now is      323.3 secs

     total energy              =    -365.10750329 Ry
     Harris-Foulkes estimate   =    -365.10750329 Ry
     estimated scf accuracy    <          1.8E-09 Ry

     iteration # 10     ecut=    45.00 Ry     beta= 0.70
     CG style diagonalization
     ethr =  5.76E-12,  avg # of iterations =  4.1

     total cpu time spent up to now is      354.5 secs

     total energy              =    -365.10750329 Ry
     Harris-Foulkes estimate   =    -365.10750329 Ry
     estimated scf accuracy    <          1.0E-09 Ry

     iteration # 11     ecut=    45.00 Ry     beta= 0.70
     CG style diagonalization
     ethr =  3.24E-12,  avg # of iterations =  3.2

     total cpu time spent up to now is      378.6 secs

     total energy              =    -365.10750329 Ry
     Harris-Foulkes estimate   =    -365.10750329 Ry
     estimated scf accuracy    <          1.3E-10 Ry

     iteration # 12     ecut=    45.00 Ry     beta= 0.70
     CG style diagonalization
     ethr =  4.13E-13,  avg # of iterations =  4.8

     total cpu time spent up to now is      415.0 secs

     total energy              =    -365.10750329 Ry
     Harris-Foulkes estimate   =    -365.10750329 Ry
     estimated scf accuracy    <          1.7E-11 Ry

     iteration # 13     ecut=    45.00 Ry     beta= 0.70
     CG style diagonalization
     ethr =  1.00E-13,  avg # of iterations =  3.5

     total cpu time spent up to now is      441.3 secs

     total energy              =    -365.10750329 Ry
     Harris-Foulkes estimate   =    -365.10750329 Ry
     estimated scf accuracy    <          1.3E-11 Ry

     iteration # 14     ecut=    45.00 Ry     beta= 0.70
     CG style diagonalization
     ethr =  1.00E-13,  avg # of iterations =  3.0

     total cpu time spent up to now is      464.3 secs

     total energy              =    -365.10750329 Ry
     Harris-Foulkes estimate   =    -365.10750329 Ry
     estimated scf accuracy    <          2.7E-12 Ry

     iteration # 15     ecut=    45.00 Ry     beta= 0.70
     CG style diagonalization
     ethr =  1.00E-13,  avg # of iterations =  3.0

     total cpu time spent up to now is      487.0 secs

     total energy              =    -365.10750329 Ry
     Harris-Foulkes estimate   =    -365.10750329 Ry
     estimated scf accuracy    <          1.8E-12 Ry

     iteration # 16     ecut=    45.00 Ry     beta= 0.70
     CG style diagonalization
     ethr =  1.00E-13,  avg # of iterations =  3.0

     total cpu time spent up to now is      509.7 secs

     End of self-consistent calculation

          k = 0.0000 0.0000 0.0000 (  5575 PWs)   bands (ev):

    -5.8947  -1.7970  -1.7970  -1.7970  -1.7970  -1.7970  -1.7970   3.1506
     3.1506   3.1506   3.1506   3.1506   3.1506   5.9800   5.9800   5.9800

          k = 0.0000 0.0000 0.1667 (  5602 PWs)   bands (ev):

    -5.7745  -2.9939  -1.7593  -1.7593  -1.7593  -1.7593  -0.4578   2.8409
     2.8410   2.8410   2.8410   3.2591   3.2591   5.2688   5.5520   5.5520

          k = 0.0000 0.0000 0.3333 (  5578 PWs)   bands (ev):

    -5.4160  -4.0118  -1.6786  -1.6785  -1.6785  -1.6785   0.9766   2.3533
     2.3534   2.3534   2.3534   3.5812   3.5812   3.9218   4.7949   4.7949

          k = 0.0000 0.0000-0.5000 (  5622 PWs)   bands (ev):

    -4.8248  -4.8248  -1.6350  -1.6350  -1.6350  -1.6350   2.1456   2.1456
     2.1456   2.1456   2.4543   2.4544   4.1041   4.1041   4.1041   4.1041

          k = 0.0000 0.1667 0.1667 (  5603 PWs)   bands (ev):

    -5.6554  -2.9173  -2.9173  -1.9365  -1.5372  -0.4938  -0.4938   2.1537
     2.8748   2.8748   3.0724   3.0724   3.3419   4.3785   5.1183   5.8631

          k = 0.0000 0.1667 0.3333 (  5585 PWs)   bands (ev):

    -5.3002  -3.9142  -2.7057  -2.1423  -1.2414  -0.6362   0.8040   1.7496
     2.2290   2.8468   3.1554   3.2234   3.2446   3.5843   4.3514   5.2755

          k = 0.0000 0.1667-0.5000 (  5606 PWs)   bands (ev):

    -4.7156  -4.7155  -2.4173  -2.4173  -0.9096  -0.9096   1.7902   1.7902
     2.0585   2.0585   2.9163   2.9164   3.6607   3.6607   4.3620   4.3621

          k = 0.0000 0.3333 0.3333 (  5584 PWs)   bands (ev):

    -4.9558  -3.6308  -3.6308  -2.6670  -0.7618   0.3524   0.3524   1.5870
     2.2628   2.4251   2.4251   3.5743   3.6969   3.6970   3.8849   5.4198

          k = 0.0000 0.3333-0.5000 (  5616 PWs)   bands (ev):

    -4.3928  -4.3928  -3.1938  -3.1938  -0.2144  -0.2144   1.2998   1.2999
     1.8467   1.8467   2.8921   2.8921   3.9153   3.9154   4.7143   4.7143

          k = 0.0000-0.5000-0.5000 (  5552 PWs)   bands (ev):

    -3.8737  -3.8736  -3.8736  -3.8736   0.5155   0.5155   0.5155   0.5156
     2.2414   2.2414   2.2414   2.2415   4.6626   4.6627   4.6627   4.6628

          k = 0.1667 0.1667 0.1667 (  5557 PWs)   bands (ev):

    -5.5375  -2.8610  -2.8610  -2.8610  -0.5597  -0.5597  -0.5597   2.3653
     2.3653   2.3653   3.4461   3.4462   3.4462   3.5931   5.5325   5.5325

          k = 0.1667 0.1667 0.3333 (  5597 PWs)   bands (ev):

    -5.1863  -3.8242  -2.7324  -2.7324  -0.7285  -0.7284   0.5382   2.0477
     2.0477   2.5507   3.0027   3.3755   3.3755   3.7538   4.8805   5.0494

          k = 0.1667 0.1667-0.5000 (  5608 PWs)   bands (ev):

    -4.6098  -4.6098  -2.6571  -2.6571  -0.8334  -0.8334   1.5503   1.5504
     1.9860   1.9860   3.2329   3.2329   3.9872   3.9872   4.2469   4.2469

          k = 0.1667 0.3333 0.3333 (  5605 PWs)   bands (ev):

    -4.8483  -3.5703  -3.5703  -2.8868  -0.7872  -0.0235  -0.0235   1.5870
     2.0964   2.7652   2.7652   3.8670   3.8670   3.9710   4.2930   5.3026

          k = 0.1667 0.3333-0.5000 (  5614 PWs)   bands (ev):

    -4.2997  -4.2997  -3.2130  -3.2130  -0.5372  -0.5372   0.7254   0.7254
     2.4031   2.4031   3.5487   3.5487   4.0204   4.0204   4.6784   4.6784

          k = 0.1667-0.5000-0.5000 (  5628 PWs)   bands (ev):

    -3.8122  -3.8122  -3.8122  -3.8122  -0.0034  -0.0034  -0.0034  -0.0033
     2.9395   2.9395   2.9395   2.9396   4.6931   4.6931   4.6931   4.6932

          k = 0.3333 0.3333 0.3333 (  5644 PWs)   bands (ev):

    -4.5332  -3.4316  -3.4316  -3.4316  -0.5964  -0.5964  -0.5963   0.6633
     3.2066   3.2067   3.2067   4.2176   4.2176   4.2176   4.9874   4.9874

          k = 0.3333 0.3333-0.5000 (  5614 PWs)   bands (ev):

    -4.0375  -4.0375  -3.3501  -3.3501  -0.8469  -0.8468  -0.0918  -0.0918
     3.3846   3.3846   4.3443   4.3444   4.4035   4.4035   4.5841   4.5841

          k = 0.3333-0.5000-0.5000 (  5644 PWs)   bands (ev):

    -3.6716  -3.6716  -3.6716  -3.6716  -0.6781  -0.6781  -0.6781  -0.6780
     4.1061   4.1061   4.1061   4.1062   4.7573   4.7573   4.7573   4.7574

          k =-0.5000-0.5000-0.5000 (  5616 PWs)   bands (ev):

    -3.5890  -3.5890  -3.5890  -3.5890  -0.9561  -0.9561  -0.9561  -0.9560
     4.7913   4.7913   4.7913   4.7913   4.7913   4.7913   4.7914   4.7914

     highest occupied level (ev):     5.9800

!    total energy              =    -365.10750329 Ry
     Harris-Foulkes estimate   =    -365.10750329 Ry
     estimated scf accuracy    <          2.0E-14 Ry

     convergence has been achieved in  16 iterations

     Forces acting on atoms (cartesian axes, Ry/au):

     atom    1 type  1   force =     0.00000000    0.00000000    0.00000000
     atom    2 type  1   force =     0.00000000    0.00000000    0.00000000
     atom    3 type  1   force =     0.00000000    0.00000000    0.00000000
     atom    4 type  1   force =     0.00000000    0.00000000    0.00000000
     atom    5 type  1   force =     0.00011204    0.00011204    0.00011204
     atom    6 type  1   force =     0.00011204   -0.00011204   -0.00011204
     atom    7 type  1   force =    -0.00011204    0.00011204   -0.00011204
     atom    8 type  1   force =    -0.00011204   -0.00011204    0.00011204

     Total force =     0.000000     Total SCF correction =     0.000000


     Computing stress (Cartesian axis) and pressure

          total   stress  (Ry/bohr**3)                   (kbar)     P=  -14.39
  -0.00009785   0.00000000   0.00000000        -14.39      0.00      0.00
   0.00000000  -0.00009785   0.00000000          0.00    -14.39      0.00
   0.00000000   0.00000000  -0.00009785          0.00      0.00    -14.39


     Wentzcovitch Damped Cell Dynamics Minimization:
     convergence thresholds EPSE = 1.00E-04  EPSF = 1.00E-03

     Entering Dynamics;  it =     1   time =  0.00000 pico-seconds

  new lattice vectors (alat unit) :
   0.999973953   0.000000000   0.000000000
   0.000000000   0.999973953   0.000000000
   0.000000000   0.000000000   0.999973953
  new unit-cell volume =   1099.0189 (a.u.)^3
  new positions in cryst coord
Si       0.000000000   0.000000000   0.000000000
Si       0.000000000   0.500000000   0.500000000
Si       0.500000000   0.000000000   0.500000000
Si       0.500000000   0.500000000   0.000000000
Si       0.250000000   0.250000000   0.250000000
Si       0.250000000   0.750000000   0.750000000
Si       0.750000000   0.250000000   0.750000000
Si       0.750000000   0.750000000   0.250000000
  new positions in cart coord (alat unit)
Si       0.000000000   0.000000000   0.000000000
Si       0.000000000   0.499986976   0.499986976
Si       0.499986976   0.000000000   0.499986976
Si       0.499986976   0.499986976   0.000000000
Si       0.249993488   0.249993488   0.249993488
Si       0.249993488   0.749980465   0.749980465
Si       0.749980465   0.249993488   0.749980465
Si       0.749980465   0.749980465   0.249993488

     Ekin =     0.00000000 Ry    T =    0.0 K  Etot =  -365.10750329
     new unit-cell volume =   1099.01888 a.u.^3 (   162.85779 Ang^3 )
     density =      2.29098 g/cm^3

CELL_PARAMETERS (alat= 10.32000000)
   0.999973953   0.000000000   0.000000000
   0.000000000   0.999973953   0.000000000
   0.000000000   0.000000000   0.999973953

ATOMIC_POSITIONS (alat)
Si       0.000000000   0.000000000   0.000000000    0   0   0
Si       0.000000000   0.499986976   0.499986976    0   0   0
Si       0.499986976   0.000000000   0.499986976    0   0   0
Si       0.499986976   0.499986976   0.000000000    0   0   0
Si       0.249993488   0.249993488   0.249993488    0   0   0
Si       0.249993488   0.749980465   0.749980465    0   0   0
Si       0.749980465   0.249993488   0.749980465    0   0   0
Si       0.749980465   0.749980465   0.249993488    0   0   0



     Writing output data file Si.Fd-3m.8-atom.vc-relax.save/
     NEW-OLD atomic charge density approx. for the potential
     extrapolated charge   31.99750, renormalised to   32.00000

     total cpu time spent up to now is      539.4 secs

     Self-consistent Calculation

     iteration #  1     ecut=    45.00 Ry     beta= 0.70
     CG style diagonalization
     ethr =  1.00E-06,  avg # of iterations =  2.0

     Threshold (ethr) on eigenvalues was too large:
     Diagonalizing with lowered threshold

     CG style diagonalization
     ethr =  3.15E-11,  avg # of iterations =  3.1

     total cpu time spent up to now is      585.3 secs

     total energy              =    -365.10751166 Ry
     Harris-Foulkes estimate   =    -365.10589026 Ry
     estimated scf accuracy    <          9.2E-09 Ry

     iteration #  2     ecut=    45.00 Ry     beta= 0.70
     CG style diagonalization
     ethr =  2.89E-11,  avg # of iterations =  5.1

     total cpu time spent up to now is      623.8 secs

     total energy              =    -365.10751168 Ry
     Harris-Foulkes estimate   =    -365.10751168 Ry
     estimated scf accuracy    <          8.2E-09 Ry

     iteration #  3     ecut=    45.00 Ry     beta= 0.70
     CG style diagonalization
     ethr =  2.57E-11,  avg # of iterations =  3.0

     total cpu time spent up to now is      646.6 secs

     total energy              =    -365.10751168 Ry
     Harris-Foulkes estimate   =    -365.10751168 Ry
     estimated scf accuracy    <          2.5E-09 Ry

     iteration #  4     ecut=    45.00 Ry     beta= 0.70
     CG style diagonalization
     ethr =  7.86E-12,  avg # of iterations =  4.3

     total cpu time spent up to now is      678.7 secs

     total energy              =    -365.10751168 Ry
     Harris-Foulkes estimate   =    -365.10751168 Ry
     estimated scf accuracy    <          5.4E-10 Ry

     iteration #  5     ecut=    45.00 Ry     beta= 0.70
     CG style diagonalization
     ethr =  1.69E-12,  avg # of iterations =  4.0

     total cpu time spent up to now is      709.0 secs

     total energy              =    -365.10751168 Ry
     Harris-Foulkes estimate   =    -365.10751168 Ry
     estimated scf accuracy    <          1.2E-11 Ry

     iteration #  6     ecut=    45.00 Ry     beta= 0.70
     CG style diagonalization
     ethr =  1.00E-13,  avg # of iterations =  4.0

     total cpu time spent up to now is      739.2 secs

     total energy              =    -365.10751168 Ry
     Harris-Foulkes estimate   =    -365.10751168 Ry
     estimated scf accuracy    <          1.6E-12 Ry

     iteration #  7     ecut=    45.00 Ry     beta= 0.70
     CG style diagonalization
     ethr =  1.00E-13,  avg # of iterations =  3.0

     total cpu time spent up to now is      761.9 secs

     End of self-consistent calculation

          k = 0.0000 0.0000 0.0000 (  5575 PWs)   bands (ev):

    -5.8944  -1.7965  -1.7965  -1.7965  -1.7965  -1.7965  -1.7965   3.1512
     3.1512   3.1512   3.1512   3.1512   3.1512   5.9808   5.9808   5.9808

          k = 0.0000 0.0000 0.1667 (  5602 PWs)   bands (ev):

    -5.7743  -2.9934  -1.7588  -1.7588  -1.7588  -1.7588  -0.4572   2.8415
     2.8415   2.8415   2.8415   3.2597   3.2597   5.2697   5.5528   5.5528

          k = 0.0000 0.0000 0.3333 (  5578 PWs)   bands (ev):

    -5.4157  -4.0114  -1.6780  -1.6780  -1.6780  -1.6779   0.9774   2.3538
     2.3539   2.3539   2.3539   3.5818   3.5818   3.9226   4.7956   4.7956

          k = 0.0000 0.0000-0.5000 (  5622 PWs)   bands (ev):

    -4.8245  -4.8245  -1.6344  -1.6344  -1.6344  -1.6344   2.1461   2.1461
     2.1461   2.1461   2.4552   2.4552   4.1047   4.1047   4.1047   4.1047

          k = 0.0000 0.1667 0.1667 (  5603 PWs)   bands (ev):

    -5.6551  -2.9169  -2.9168  -1.9360  -1.5366  -0.4932  -0.4932   2.1542
     2.8753   2.8754   3.0729   3.0730   3.3426   4.3794   5.1190   5.8639

          k = 0.0000 0.1667 0.3333 (  5585 PWs)   bands (ev):

    -5.2999  -3.9138  -2.7052  -2.1418  -1.2408  -0.6355   0.8047   1.7500
     2.2295   2.8473   3.1560   3.2240   3.2454   3.5849   4.3520   5.2762

          k = 0.0000 0.1667-0.5000 (  5606 PWs)   bands (ev):

    -4.7152  -4.7152  -2.4168  -2.4168  -0.9090  -0.9089   1.7907   1.7907
     2.0593   2.0593   2.9169   2.9169   3.6613   3.6614   4.3627   4.3628

          k = 0.0000 0.3333 0.3333 (  5584 PWs)   bands (ev):

    -4.9555  -3.6304  -3.6304  -2.6665  -0.7612   0.3531   0.3531   1.5874
     2.2636   2.4257   2.4257   3.5749   3.6976   3.6976   3.8856   5.4206

          k = 0.0000 0.3333-0.5000 (  5616 PWs)   bands (ev):

    -4.3924  -4.3924  -3.1933  -3.1933  -0.2138  -0.2137   1.3005   1.3006
     1.8471   1.8471   2.8926   2.8926   3.9160   3.9160   4.7150   4.7150

          k = 0.0000-0.5000-0.5000 (  5552 PWs)   bands (ev):

    -3.8732  -3.8732  -3.8732  -3.8732   0.5161   0.5161   0.5162   0.5163
     2.2419   2.2420   2.2420   2.2420   4.6634   4.6634   4.6634   4.6635

          k = 0.1667 0.1667 0.1667 (  5557 PWs)   bands (ev):

    -5.5372  -2.8605  -2.8605  -2.8605  -0.5591  -0.5591  -0.5590   2.3658
     2.3658   2.3658   3.4468   3.4468   3.4468   3.5938   5.5332   5.5332

          k = 0.1667 0.1667 0.3333 (  5597 PWs)   bands (ev):

    -5.1859  -3.8238  -2.7319  -2.7319  -0.7279  -0.7278   0.5389   2.0482
     2.0482   2.5514   3.0033   3.3761   3.3761   3.7545   4.8812   5.0502

          k = 0.1667 0.1667-0.5000 (  5608 PWs)   bands (ev):

    -4.6094  -4.6094  -2.6566  -2.6566  -0.8329  -0.8328   1.5510   1.5511
     1.9865   1.9865   3.2335   3.2335   3.9879   3.9879   4.2476   4.2476

          k = 0.1667 0.3333 0.3333 (  5605 PWs)   bands (ev):

    -4.8480  -3.5698  -3.5698  -2.8862  -0.7867  -0.0229  -0.0229   1.5876
     2.0970   2.7658   2.7658   3.8676   3.8676   3.9717   4.2937   5.3034

          k = 0.1667 0.3333-0.5000 (  5614 PWs)   bands (ev):

    -4.2994  -4.2993  -3.2126  -3.2126  -0.5367  -0.5366   0.7260   0.7261
     2.4037   2.4037   3.5493   3.5494   4.0210   4.0211   4.6791   4.6792

          k = 0.1667-0.5000-0.5000 (  5628 PWs)   bands (ev):

    -3.8118  -3.8118  -3.8118  -3.8118  -0.0028  -0.0028  -0.0028  -0.0027
     2.9401   2.9401   2.9401   2.9402   4.6938   4.6938   4.6938   4.6939

          k = 0.3333 0.3333 0.3333 (  5644 PWs)   bands (ev):

    -4.5328  -3.4311  -3.4311  -3.4311  -0.5959  -0.5959  -0.5958   0.6639
     3.2073   3.2073   3.2073   4.2183   4.2183   4.2183   4.9882   4.9882

          k = 0.3333 0.3333-0.5000 (  5614 PWs)   bands (ev):

    -4.0371  -4.0371  -3.3496  -3.3496  -0.8464  -0.8463  -0.0913  -0.0913
     3.3853   3.3853   4.3450   4.3451   4.4042   4.4043   4.5848   4.5848

          k = 0.3333-0.5000-0.5000 (  5644 PWs)   bands (ev):

    -3.6711  -3.6711  -3.6711  -3.6711  -0.6776  -0.6776  -0.6776  -0.6775
     4.1068   4.1068   4.1068   4.1069   4.7580   4.7580   4.7580   4.7581

          k =-0.5000-0.5000-0.5000 (  5616 PWs)   bands (ev):

    -3.5886  -3.5886  -3.5886  -3.5886  -0.9557  -0.9557  -0.9557  -0.9556
     4.7920   4.7920   4.7920   4.7920   4.7920   4.7920   4.7921   4.7921

     highest occupied level (ev):     5.9808

!    total energy              =    -365.10751168 Ry
     Harris-Foulkes estimate   =    -365.10751168 Ry
     estimated scf accuracy    <          1.5E-15 Ry

     convergence has been achieved in   7 iterations

     Forces acting on atoms (cartesian axes, Ry/au):

     atom    1 type  1   force =     0.00000000    0.00000000    0.00000000
     atom    2 type  1   force =     0.00000000   -0.00000000    0.00000000
     atom    3 type  1   force =     0.00000000    0.00000000    0.00000000
     atom    4 type  1   force =     0.00000000   -0.00000000    0.00000000
     atom    5 type  1   force =     0.00011183    0.00011183    0.00011183
     atom    6 type  1   force =     0.00011183   -0.00011183   -0.00011183
     atom    7 type  1   force =    -0.00011183    0.00011183   -0.00011183
     atom    8 type  1   force =    -0.00011183   -0.00011183    0.00011183

     Total force =     0.000000     Total SCF correction =     0.000000


     Computing stress (Cartesian axis) and pressure

          total   stress  (Ry/bohr**3)                   (kbar)     P=  -14.33
  -0.00009738   0.00000000   0.00000000        -14.33      0.00      0.00
   0.00000000  -0.00009738   0.00000000          0.00    -14.33      0.00
   0.00000000   0.00000000  -0.00009738          0.00      0.00    -14.33


     Entering Dynamics;  it =     2   time =  0.00097 pico-seconds

  new lattice vectors (alat unit) :
   0.999909015   0.000000000   0.000000000
   0.000000000   0.999909015   0.000000000
   0.000000000   0.000000000   0.999909015
  new unit-cell volume =   1098.8048 (a.u.)^3
  new positions in cryst coord
Si       0.000000000   0.000000000   0.000000000
Si       0.000000000   0.500000000   0.500000000
Si       0.500000000   0.000000000   0.500000000
Si       0.500000000   0.500000000   0.000000000
Si       0.250000000   0.250000000   0.250000000
Si       0.250000000   0.750000000   0.750000000
Si       0.750000000   0.250000000   0.750000000
Si       0.750000000   0.750000000   0.250000000
  new positions in cart coord (alat unit)
Si       0.000000000   0.000000000   0.000000000
Si       0.000000000   0.499954507   0.499954507
Si       0.499954507   0.000000000   0.499954507
Si       0.499954507   0.499954507   0.000000000
Si       0.249977254   0.249977254   0.249977254
Si       0.249977254   0.749931761   0.749931761
Si       0.749931761   0.249977254   0.749931761
Si       0.749931761   0.749931761   0.249977254

     Ekin =     0.00000856 Ry    T =    0.1 K  Etot =  -365.10750312
     new unit-cell volume =   1098.80479 a.u.^3 (   162.82607 Ang^3 )
     density =      2.29142 g/cm^3

CELL_PARAMETERS (alat= 10.32000000)
   0.999909015   0.000000000   0.000000000
   0.000000000   0.999909015   0.000000000
   0.000000000   0.000000000   0.999909015

ATOMIC_POSITIONS (alat)
Si       0.000000000   0.000000000   0.000000000    0   0   0
Si       0.000000000   0.499954507   0.499954507    0   0   0
Si       0.499954507   0.000000000   0.499954507    0   0   0
Si       0.499954507   0.499954507   0.000000000    0   0   0
Si       0.249977254   0.249977254   0.249977254    0   0   0
Si       0.249977254   0.749931761   0.749931761    0   0   0
Si       0.749931761   0.249977254   0.749931761    0   0   0
Si       0.749931761   0.749931761   0.249977254    0   0   0



     Writing output data file Si.Fd-3m.8-atom.vc-relax.save/
     NEW-OLD atomic charge density approx. for the potential
     extrapolated charge   31.99377, renormalised to   32.00000

     total cpu time spent up to now is      791.5 secs

     Self-consistent Calculation

     iteration #  1     ecut=    45.00 Ry     beta= 0.70
     CG style diagonalization
     ethr =  1.00E-06,  avg # of iterations =  2.0

     Threshold (ethr) on eigenvalues was too large:
     Diagonalizing with lowered threshold

     CG style diagonalization
     ethr =  1.96E-10,  avg # of iterations =  3.1

     total cpu time spent up to now is      837.4 secs

     total energy              =    -365.10753230 Ry
     Harris-Foulkes estimate   =    -365.10348921 Ry
     estimated scf accuracy    <       0.00000006 Ry

     iteration #  2     ecut=    45.00 Ry     beta= 0.70
     CG style diagonalization
     ethr =  1.79E-10,  avg # of iterations =  5.1

     total cpu time spent up to now is      876.0 secs

     total energy              =    -365.10753241 Ry
     Harris-Foulkes estimate   =    -365.10753243 Ry
     estimated scf accuracy    <       0.00000005 Ry

     iteration #  3     ecut=    45.00 Ry     beta= 0.70
     CG style diagonalization
     ethr =  1.60E-10,  avg # of iterations =  3.0

     total cpu time spent up to now is      898.5 secs

     total energy              =    -365.10753240 Ry
     Harris-Foulkes estimate   =    -365.10753241 Ry
     estimated scf accuracy    <       0.00000002 Ry

     iteration #  4     ecut=    45.00 Ry     beta= 0.70
     CG style diagonalization
     ethr =  4.93E-11,  avg # of iterations =  4.3

     total cpu time spent up to now is      930.7 secs

     total energy              =    -365.10753240 Ry
     Harris-Foulkes estimate   =    -365.10753240 Ry
     estimated scf accuracy    <          3.5E-09 Ry

     iteration #  5     ecut=    45.00 Ry     beta= 0.70
     CG style diagonalization
     ethr =  1.08E-11,  avg # of iterations =  4.0

     total cpu time spent up to now is      960.9 secs

     total energy              =    -365.10753240 Ry
     Harris-Foulkes estimate   =    -365.10753240 Ry
     estimated scf accuracy    <          9.5E-11 Ry

     iteration #  6     ecut=    45.00 Ry     beta= 0.70
     CG style diagonalization
     ethr =  2.96E-13,  avg # of iterations =  4.4

     total cpu time spent up to now is      994.1 secs

     total energy              =    -365.10753240 Ry
     Harris-Foulkes estimate   =    -365.10753240 Ry
     estimated scf accuracy    <          2.8E-12 Ry

     iteration #  7     ecut=    45.00 Ry     beta= 0.70
     CG style diagonalization
     ethr =  1.00E-13,  avg # of iterations =  3.0

     total cpu time spent up to now is     1017.0 secs

     End of self-consistent calculation

          k = 0.0000 0.0000 0.0000 (  5575 PWs)   bands (ev):

    -5.8937  -1.7951  -1.7951  -1.7951  -1.7951  -1.7951  -1.7951   3.1527
     3.1527   3.1527   3.1527   3.1527   3.1527   5.9828   5.9828   5.9828

          k = 0.0000 0.0000 0.1667 (  5602 PWs)   bands (ev):

    -5.7735  -2.9923  -1.7574  -1.7574  -1.7574  -1.7574  -0.4556   2.8429
     2.8429   2.8429   2.8429   3.2613   3.2613   5.2718   5.5547   5.5547

          k = 0.0000 0.0000 0.3334 (  5578 PWs)   bands (ev):

    -5.4149  -4.0104  -1.6765  -1.6765  -1.6765  -1.6765   0.9792   2.3551
     2.3551   2.3551   2.3551   3.5834   3.5834   3.9248   4.7974   4.7974

          k = 0.0000 0.0000-0.5000 (  5622 PWs)   bands (ev):

    -4.8236  -4.8236  -1.6329  -1.6329  -1.6329  -1.6329   2.1473   2.1473
     2.1473   2.1473   2.4572   2.4573   4.1064   4.1064   4.1064   4.1064

          k = 0.0000 0.1667 0.1667 (  5603 PWs)   bands (ev):

    -5.6544  -2.9157  -2.9156  -1.9346  -1.5352  -0.4916  -0.4915   2.1554
     2.8768   2.8768   3.0744   3.0744   3.3441   4.3814   5.1208   5.8659

          k = 0.0000 0.1667 0.3334 (  5585 PWs)   bands (ev):

    -5.2991  -3.9128  -2.7040  -2.1404  -1.2393  -0.6339   0.8065   1.7511
     2.2307   2.8486   3.1575   3.2255   3.2473   3.5864   4.3537   5.2782

          k = 0.0000 0.1667-0.5000 (  5606 PWs)   bands (ev):

    -4.7143  -4.7143  -2.4154  -2.4154  -0.9074  -0.9074   1.7918   1.7918
     2.0612   2.0612   2.9183   2.9183   3.6629   3.6629   4.3645   4.3645

          k = 0.0000 0.3334 0.3334 (  5584 PWs)   bands (ev):

    -4.9546  -3.6293  -3.6293  -2.6652  -0.7597   0.3548   0.3548   1.5885
     2.2654   2.4270   2.4270   3.5764   3.6991   3.6991   3.8872   5.4225

          k = 0.0000 0.3334-0.5000 (  5616 PWs)   bands (ev):

    -4.3915  -4.3914  -3.1921  -3.1921  -0.2122  -0.2121   1.3023   1.3024
     1.8483   1.8483   2.8940   2.8940   3.9176   3.9176   4.7168   4.7168

          k = 0.0000-0.5000-0.5000 (  5552 PWs)   bands (ev):

    -3.8722  -3.8722  -3.8722  -3.8722   0.5178   0.5178   0.5178   0.5179
     2.2432   2.2432   2.2432   2.2433   4.6651   4.6652   4.6652   4.6653

          k = 0.1667 0.1667 0.1667 (  5557 PWs)   bands (ev):

    -5.5365  -2.8593  -2.8593  -2.8593  -0.5575  -0.5575  -0.5574   2.3671
     2.3671   2.3671   3.4483   3.4483   3.4483   3.5957   5.5352   5.5352

          k = 0.1667 0.1667 0.3334 (  5597 PWs)   bands (ev):

    -5.1851  -3.8227  -2.7306  -2.7306  -0.7264  -0.7263   0.5406   2.0494
     2.0494   2.5531   3.0048   3.3776   3.3776   3.7561   4.8830   5.0521

          k = 0.1667 0.1667-0.5000 (  5608 PWs)   bands (ev):

    -4.6085  -4.6085  -2.6553  -2.6553  -0.8314  -0.8314   1.5528   1.5528
     1.9878   1.9878   3.2349   3.2349   3.9896   3.9897   4.2493   4.2493

          k = 0.1667 0.3334 0.3334 (  5605 PWs)   bands (ev):

    -4.8471  -3.5687  -3.5687  -2.8850  -0.7853  -0.0214  -0.0214   1.5893
     2.0983   2.7673   2.7673   3.8692   3.8692   3.9733   4.2954   5.3053

          k = 0.1667 0.3334-0.5000 (  5614 PWs)   bands (ev):

    -4.2984  -4.2984  -3.2114  -3.2114  -0.5353  -0.5352   0.7275   0.7276
     2.4051   2.4051   3.5510   3.5510   4.0227   4.0227   4.6809   4.6810

          k = 0.1667-0.5000-0.5000 (  5628 PWs)   bands (ev):

    -3.8107  -3.8107  -3.8107  -3.8107  -0.0014  -0.0014  -0.0014  -0.0013
     2.9416   2.9417   2.9417   2.9417   4.6956   4.6956   4.6956   4.6957

          k = 0.3334 0.3334 0.3334 (  5644 PWs)   bands (ev):

    -4.5319  -3.4299  -3.4299  -3.4299  -0.5946  -0.5946  -0.5945   0.6653
     3.2089   3.2089   3.2089   4.2200   4.2200   4.2200   4.9900   4.9900

          k = 0.3334 0.3334-0.5000 (  5614 PWs)   bands (ev):

    -4.0360  -4.0360  -3.3484  -3.3484  -0.8452  -0.8452  -0.0900  -0.0899
     3.3869   3.3870   4.3467   4.3468   4.4061   4.4061   4.5866   4.5866

          k = 0.3334-0.5000-0.5000 (  5644 PWs)   bands (ev):

    -3.6700  -3.6700  -3.6700  -3.6700  -0.6764  -0.6764  -0.6764  -0.6763
     4.1086   4.1086   4.1086   4.1087   4.7598   4.7598   4.7598   4.7599

          k =-0.5000-0.5000-0.5000 (  5616 PWs)   bands (ev):

    -3.5874  -3.5874  -3.5874  -3.5874  -0.9546  -0.9546  -0.9546  -0.9545
     4.7938   4.7938   4.7938   4.7939   4.7939   4.7939   4.7939   4.7939

     highest occupied level (ev):     5.9828

!    total energy              =    -365.10753240 Ry
     Harris-Foulkes estimate   =    -365.10753240 Ry
     estimated scf accuracy    <          3.0E-13 Ry

     convergence has been achieved in   7 iterations

     Forces acting on atoms (cartesian axes, Ry/au):

     atom    1 type  1   force =     0.00000000    0.00000000    0.00000000
     atom    2 type  1   force =     0.00000000   -0.00000000    0.00000000
     atom    3 type  1   force =     0.00000000    0.00000000    0.00000000
     atom    4 type  1   force =     0.00000000    0.00000000    0.00000000
     atom    5 type  1   force =     0.00011170    0.00011170    0.00011170
     atom    6 type  1   force =     0.00011170   -0.00011170   -0.00011170
     atom    7 type  1   force =    -0.00011170    0.00011170   -0.00011170
     atom    8 type  1   force =    -0.00011170   -0.00011170    0.00011170

     Total force =     0.000000     Total SCF correction =     0.000000


     Computing stress (Cartesian axis) and pressure

          total   stress  (Ry/bohr**3)                   (kbar)     P=  -14.15
  -0.00009622   0.00000000   0.00000000        -14.15      0.00      0.00
   0.00000000  -0.00009622   0.00000000          0.00    -14.15      0.00
   0.00000000   0.00000000  -0.00009622          0.00      0.00    -14.15


     Entering Dynamics;  it =     3   time =  0.00194 pico-seconds

  new lattice vectors (alat unit) :
   0.999805636   0.000000000   0.000000000
   0.000000000   0.999805636   0.000000000
   0.000000000   0.000000000   0.999805636
  new unit-cell volume =   1098.4640 (a.u.)^3
  new positions in cryst coord
Si       0.000000000   0.000000000   0.000000000
Si       0.000000000   0.500000000   0.500000000
Si       0.500000000   0.000000000   0.500000000
Si       0.500000000   0.500000000   0.000000000
Si       0.250000000   0.250000000   0.250000000
Si       0.250000000   0.750000000   0.750000000
Si       0.750000000   0.250000000   0.750000000
Si       0.750000000   0.750000000   0.250000000
  new positions in cart coord (alat unit)
Si       0.000000000   0.000000000   0.000000000
Si       0.000000000   0.499902818   0.499902818
Si       0.499902818   0.000000000   0.499902818
Si       0.499902818   0.499902818   0.000000000
Si       0.249951409   0.249951409   0.249951409
Si       0.249951409   0.749854227   0.749854227
Si       0.749854227   0.249951409   0.749854227
Si       0.749854227   0.749854227   0.249951409

     Ekin =     0.00002929 Ry    T =    0.2 K  Etot =  -365.10750312
     new unit-cell volume =   1098.46401 a.u.^3 (   162.77557 Ang^3 )
     density =      2.29213 g/cm^3

CELL_PARAMETERS (alat= 10.32000000)
   0.999805636   0.000000000   0.000000000
   0.000000000   0.999805636   0.000000000
   0.000000000   0.000000000   0.999805636

ATOMIC_POSITIONS (alat)
Si       0.000000000   0.000000000   0.000000000    0   0   0
Si       0.000000000   0.499902818   0.499902818    0   0   0
Si       0.499902818   0.000000000   0.499902818    0   0   0
Si       0.499902818   0.499902818   0.000000000    0   0   0
Si       0.249951409   0.249951409   0.249951409    0   0   0
Si       0.249951409   0.749854227   0.749854227    0   0   0
Si       0.749854227   0.249951409   0.749854227    0   0   0
Si       0.749854227   0.749854227   0.249951409    0   0   0



     Writing output data file Si.Fd-3m.8-atom.vc-relax.save/
     NEW-OLD atomic charge density approx. for the potential
     extrapolated charge   31.99007, renormalised to   32.00000

     total cpu time spent up to now is     1046.7 secs

     Self-consistent Calculation

     iteration #  1     ecut=    45.00 Ry     beta= 0.70
     CG style diagonalization
     ethr =  1.00E-06,  avg # of iterations =  2.0

     Threshold (ethr) on eigenvalues was too large:
     Diagonalizing with lowered threshold

     CG style diagonalization
     ethr =  4.96E-10,  avg # of iterations =  3.1

     total cpu time spent up to now is     1092.6 secs

     total energy              =    -365.10756460 Ry
     Harris-Foulkes estimate   =    -365.10112610 Ry
     estimated scf accuracy    <       0.00000015 Ry

     iteration #  2     ecut=    45.00 Ry     beta= 0.70
     CG style diagonalization
     ethr =  4.55E-10,  avg # of iterations =  5.1

     total cpu time spent up to now is     1131.0 secs

     total energy              =    -365.10756489 Ry
     Harris-Foulkes estimate   =    -365.10756494 Ry
     estimated scf accuracy    <       0.00000013 Ry

     iteration #  3     ecut=    45.00 Ry     beta= 0.70
     CG style diagonalization
     ethr =  4.06E-10,  avg # of iterations =  3.0

     total cpu time spent up to now is     1153.8 secs

     total energy              =    -365.10756486 Ry
     Harris-Foulkes estimate   =    -365.10756489 Ry
     estimated scf accuracy    <       0.00000004 Ry

     iteration #  4     ecut=    45.00 Ry     beta= 0.70
     CG style diagonalization
     ethr =  1.25E-10,  avg # of iterations =  4.3

     total cpu time spent up to now is     1185.9 secs

     total energy              =    -365.10756487 Ry
     Harris-Foulkes estimate   =    -365.10756488 Ry
     estimated scf accuracy    <          8.8E-09 Ry

     iteration #  5     ecut=    45.00 Ry     beta= 0.70
     CG style diagonalization
     ethr =  2.74E-11,  avg # of iterations =  4.0

     total cpu time spent up to now is     1215.8 secs

     total energy              =    -365.10756487 Ry
     Harris-Foulkes estimate   =    -365.10756488 Ry
     estimated scf accuracy    <          1.4E-10 Ry

     iteration #  6     ecut=    45.00 Ry     beta= 0.70
     CG style diagonalization
     ethr =  4.40E-13,  avg # of iterations =  4.6

     total cpu time spent up to now is     1250.5 secs

     End of self-consistent calculation

          k = 0.0000 0.0000 0.0000 (  5575 PWs)   bands (ev):

    -5.8926  -1.7929  -1.7929  -1.7929  -1.7929  -1.7929  -1.7929   3.1551
     3.1551   3.1551   3.1551   3.1551   3.1551   5.9860   5.9860   5.9860

          k = 0.0000 0.0000 0.1667 (  5602 PWs)   bands (ev):

    -5.7724  -2.9904  -1.7551  -1.7551  -1.7551  -1.7551  -0.4530   2.8451
     2.8451   2.8451   2.8452   3.2637   3.2637   5.2753   5.5577   5.5577

          k = 0.0000 0.0000 0.3334 (  5578 PWs)   bands (ev):

    -5.4137  -4.0088  -1.6742  -1.6742  -1.6742  -1.6742   0.9821   2.3571
     2.3571   2.3571   2.3571   3.5859   3.5859   3.9283   4.8002   4.8002

          k = 0.0000 0.0000-0.5001 (  5622 PWs)   bands (ev):

    -4.8223  -4.8222  -1.6306  -1.6306  -1.6306  -1.6306   2.1492   2.1492
     2.1492   2.1492   2.4605   2.4605   4.1090   4.1090   4.1090   4.1090

          k = 0.0000 0.1667 0.1667 (  5603 PWs)   bands (ev):

    -5.6532  -2.9137  -2.9137  -1.9323  -1.5330  -0.4890  -0.4890   2.1573
     2.8790   2.8790   3.0767   3.0767   3.3465   4.3846   5.1237   5.8691

          k = 0.0000 0.1667 0.3334 (  5585 PWs)   bands (ev):

    -5.2978  -3.9111  -2.7020  -2.1381  -1.2370  -0.6313   0.8094   1.7529
     2.2327   2.8508   3.1598   3.2278   3.2505   3.5889   4.3563   5.2812

          k = 0.0000 0.1667-0.5001 (  5606 PWs)   bands (ev):

    -4.7129  -4.7129  -2.4133  -2.4133  -0.9050  -0.9049   1.7936   1.7936
     2.0643   2.0643   2.9204   2.9205   3.6653   3.6654   4.3672   4.3672

          k = 0.0000 0.3334 0.3334 (  5584 PWs)   bands (ev):

    -4.9533  -3.6276  -3.6276  -2.6631  -0.7572   0.3575   0.3575   1.5902
     2.2684   2.4290   2.4290   3.5788   3.7016   3.7016   3.8898   5.4256

          k = 0.0000 0.3334-0.5001 (  5616 PWs)   bands (ev):

    -4.3900  -4.3899  -3.1902  -3.1902  -0.2096  -0.2096   1.3051   1.3052
     1.8502   1.8502   2.8962   2.8963   3.9201   3.9202   4.7196   4.7197

          k = 0.0000-0.5001-0.5001 (  5552 PWs)   bands (ev):

    -3.8705  -3.8705  -3.8705  -3.8705   0.5204   0.5204   0.5205   0.5206
     2.2452   2.2452   2.2452   2.2453   4.6680   4.6680   4.6680   4.6681

          k = 0.1667 0.1667 0.1667 (  5557 PWs)   bands (ev):

    -5.5353  -2.8573  -2.8573  -2.8573  -0.5549  -0.5549  -0.5549   2.3691
     2.3691   2.3691   3.4508   3.4508   3.4508   3.5987   5.5382   5.5382

          k = 0.1667 0.1667 0.3334 (  5597 PWs)   bands (ev):

    -5.1838  -3.8210  -2.7286  -2.7286  -0.7240  -0.7239   0.5433   2.0514
     2.0514   2.5560   3.0071   3.3800   3.3800   3.7586   4.8858   5.0551

          k = 0.1667 0.1667-0.5001 (  5608 PWs)   bands (ev):

    -4.6071  -4.6070  -2.6532  -2.6532  -0.8291  -0.8291   1.5555   1.5555
     1.9898   1.9898   3.2372   3.2372   3.9924   3.9924   4.2519   4.2520

          k = 0.1667 0.3334 0.3334 (  5605 PWs)   bands (ev):

    -4.8457  -3.5669  -3.5669  -2.8829  -0.7831  -0.0190  -0.0190   1.5918
     2.1003   2.7697   2.7697   3.8717   3.8718   3.9760   4.2982   5.3084

          k = 0.1667 0.3334-0.5001 (  5614 PWs)   bands (ev):

    -4.2968  -4.2968  -3.2094  -3.2094  -0.5331  -0.5331   0.7300   0.7300
     2.4073   2.4073   3.5536   3.5536   4.0253   4.0253   4.6838   4.6838

          k = 0.1667-0.5001-0.5001 (  5628 PWs)   bands (ev):

    -3.8090  -3.8090  -3.8090  -3.8090   0.0009   0.0009   0.0009   0.0010
     2.9441   2.9441   2.9441   2.9441   4.6984   4.6985   4.6985   4.6986

          k = 0.3334 0.3334 0.3334 (  5644 PWs)   bands (ev):

    -4.5304  -3.4281  -3.4281  -3.4281  -0.5925  -0.5925  -0.5925   0.6676
     3.2115   3.2115   3.2115   4.2227   4.2227   4.2227   4.9930   4.9930

          k = 0.3334 0.3334-0.5001 (  5614 PWs)   bands (ev):

    -4.0344  -4.0344  -3.3465  -3.3465  -0.8433  -0.8433  -0.0879  -0.0878
     3.3896   3.3896   4.3495   4.3495   4.4090   4.4090   4.5894   4.5894

          k = 0.3334-0.5001-0.5001 (  5644 PWs)   bands (ev):

    -3.6682  -3.6682  -3.6682  -3.6682  -0.6745  -0.6745  -0.6745  -0.6744
     4.1114   4.1114   4.1114   4.1115   4.7627   4.7627   4.7627   4.7628

          k =-0.5001-0.5001-0.5001 (  5616 PWs)   bands (ev):

    -3.5855  -3.5855  -3.5855  -3.5855  -0.9528  -0.9528  -0.9528  -0.9527
     4.7968   4.7968   4.7968   4.7968   4.7968   4.7968   4.7969   4.7969

     highest occupied level (ev):     5.9860

!    total energy              =    -365.10756487 Ry
     Harris-Foulkes estimate   =    -365.10756487 Ry
     estimated scf accuracy    <          4.3E-13 Ry

     convergence has been achieved in   6 iterations

     Forces acting on atoms (cartesian axes, Ry/au):

     atom    1 type  1   force =     0.00000000    0.00000000    0.00000000
     atom    2 type  1   force =     0.00000000    0.00000000    0.00000000
     atom    3 type  1   force =     0.00000000    0.00000000    0.00000000
     atom    4 type  1   force =     0.00000000   -0.00000000    0.00000000
     atom    5 type  1   force =     0.00011150    0.00011150    0.00011150
     atom    6 type  1   force =     0.00011150   -0.00011150   -0.00011150
     atom    7 type  1   force =    -0.00011150    0.00011150   -0.00011150
     atom    8 type  1   force =    -0.00011150   -0.00011150    0.00011150

     Total force =     0.000000     Total SCF correction =     0.000000


     Computing stress (Cartesian axis) and pressure

          total   stress  (Ry/bohr**3)                   (kbar)     P=  -13.88
  -0.00009436   0.00000000   0.00000000        -13.88      0.00      0.00
   0.00000000  -0.00009436   0.00000000          0.00    -13.88      0.00
   0.00000000   0.00000000  -0.00009436          0.00      0.00    -13.88


     Entering Dynamics;  it =     4   time =  0.00290 pico-seconds

  new lattice vectors (alat unit) :
   0.999664534   0.000000000   0.000000000
   0.000000000   0.999664534   0.000000000
   0.000000000   0.000000000   0.999664534
  new unit-cell volume =   1097.9990 (a.u.)^3
  new positions in cryst coord
Si       0.000000000   0.000000000   0.000000000
Si       0.000000000   0.500000000   0.500000000
Si       0.500000000   0.000000000   0.500000000
Si       0.500000000   0.500000000   0.000000000
Si       0.250000000   0.250000000   0.250000000
Si       0.250000000   0.750000000   0.750000000
Si       0.750000000   0.250000000   0.750000000
Si       0.750000000   0.750000000   0.250000000
  new positions in cart coord (alat unit)
Si       0.000000000   0.000000000   0.000000000
Si       0.000000000   0.499832267   0.499832267
Si       0.499832267   0.000000000   0.499832267
Si       0.499832267   0.499832267   0.000000000
Si       0.249916134   0.249916134   0.249916134
Si       0.249916134   0.749748401   0.749748401
Si       0.749748401   0.249916134   0.749748401
Si       0.749748401   0.749748401   0.249916134

     Ekin =     0.00006177 Ry    T =    0.4 K  Etot =  -365.10750310
     new unit-cell volume =   1097.99900 a.u.^3 (   162.70666 Ang^3 )
     density =      2.29310 g/cm^3

CELL_PARAMETERS (alat= 10.32000000)
   0.999664534   0.000000000   0.000000000
   0.000000000   0.999664534   0.000000000
   0.000000000   0.000000000   0.999664534

ATOMIC_POSITIONS (alat)
Si       0.000000000   0.000000000   0.000000000    0   0   0
Si       0.000000000   0.499832267   0.499832267    0   0   0
Si       0.499832267   0.000000000   0.499832267    0   0   0
Si       0.499832267   0.499832267   0.000000000    0   0   0
Si       0.249916134   0.249916134   0.249916134    0   0   0
Si       0.249916134   0.749748401   0.749748401    0   0   0
Si       0.749748401   0.249916134   0.749748401    0   0   0
Si       0.749748401   0.749748401   0.249916134    0   0   0



     Writing output data file Si.Fd-3m.8-atom.vc-relax.save/
     NEW-OLD atomic charge density approx. for the potential
     extrapolated charge   31.98645, renormalised to   32.00000

     total cpu time spent up to now is     1280.2 secs

     Self-consistent Calculation

     iteration #  1     ecut=    45.00 Ry     beta= 0.70
     CG style diagonalization
     ethr =  1.00E-06,  avg # of iterations =  2.0

     Threshold (ethr) on eigenvalues was too large:
     Diagonalizing with lowered threshold

     CG style diagonalization
     ethr =  9.24E-10,  avg # of iterations =  3.1

     total cpu time spent up to now is     1326.3 secs

     total energy              =    -365.10760766 Ry
     Harris-Foulkes estimate   =    -365.09881589 Ry
     estimated scf accuracy    <       0.00000027 Ry

     iteration #  2     ecut=    45.00 Ry     beta= 0.70
     CG style diagonalization
     ethr =  8.48E-10,  avg # of iterations =  5.1

     total cpu time spent up to now is     1365.1 secs

     total energy              =    -365.10760818 Ry
     Harris-Foulkes estimate   =    -365.10760827 Ry
     estimated scf accuracy    <       0.00000024 Ry

     iteration #  3     ecut=    45.00 Ry     beta= 0.70
     CG style diagonalization
     ethr =  7.56E-10,  avg # of iterations =  3.0

     total cpu time spent up to now is     1387.9 secs

     total energy              =    -365.10760814 Ry
     Harris-Foulkes estimate   =    -365.10760819 Ry
     estimated scf accuracy    <       0.00000007 Ry

     iteration #  4     ecut=    45.00 Ry     beta= 0.70
     CG style diagonalization
     ethr =  2.31E-10,  avg # of iterations =  4.2

     total cpu time spent up to now is     1419.9 secs

     total energy              =    -365.10760816 Ry
     Harris-Foulkes estimate   =    -365.10760817 Ry
     estimated scf accuracy    <       0.00000002 Ry

     iteration #  5     ecut=    45.00 Ry     beta= 0.70
     CG style diagonalization
     ethr =  5.04E-11,  avg # of iterations =  3.9

     total cpu time spent up to now is     1449.5 secs

     total energy              =    -365.10760816 Ry
     Harris-Foulkes estimate   =    -365.10760817 Ry
     estimated scf accuracy    <          9.1E-11 Ry

     iteration #  6     ecut=    45.00 Ry     beta= 0.70
     CG style diagonalization
     ethr =  2.84E-13,  avg # of iterations =  5.0

     total cpu time spent up to now is     1487.1 secs

     total energy              =    -365.10760816 Ry
     Harris-Foulkes estimate   =    -365.10760816 Ry
     estimated scf accuracy    <          2.1E-12 Ry

     iteration #  7     ecut=    45.00 Ry     beta= 0.70
     CG style diagonalization
     ethr =  1.00E-13,  avg # of iterations =  3.1

     total cpu time spent up to now is     1510.3 secs

     total energy              =    -365.10760816 Ry
     Harris-Foulkes estimate   =    -365.10760816 Ry
     estimated scf accuracy    <          3.0E-12 Ry

     iteration #  8     ecut=    45.00 Ry     beta= 0.70
     CG style diagonalization
     ethr =  1.00E-13,  avg # of iterations =  3.0

     total cpu time spent up to now is     1532.7 secs

     End of self-consistent calculation

          k = 0.0000 0.0000 0.0000 (  5575 PWs)   bands (ev):

    -5.8911  -1.7899  -1.7899  -1.7899  -1.7899  -1.7899  -1.7898   3.1583
     3.1583   3.1583   3.1584   3.1584   3.1584   5.9904   5.9904   5.9904

          k = 0.0000 0.0000 0.1667 (  5602 PWs)   bands (ev):

    -5.7709  -2.9878  -1.7521  -1.7521  -1.7521  -1.7521  -0.4495   2.8482
     2.8482   2.8482   2.8482   3.2670   3.2670   5.2800   5.5619   5.5619

          k = 0.0000 0.0000 0.3334 (  5578 PWs)   bands (ev):

    -5.4120  -4.0066  -1.6711  -1.6711  -1.6711  -1.6710   0.9862   2.3598
     2.3598   2.3598   2.3598   3.5893   3.5893   3.9331   4.8040   4.8040

          k = 0.0000 0.0000-0.5002 (  5622 PWs)   bands (ev):

    -4.8204  -4.8204  -1.6274  -1.6274  -1.6274  -1.6274   2.1518   2.1518
     2.1518   2.1518   2.4649   2.4650   4.1126   4.1126   4.1126   4.1126

          k = 0.0000 0.1667 0.1667 (  5603 PWs)   bands (ev):

    -5.6517  -2.9111  -2.9111  -1.9292  -1.5299  -0.4855  -0.4854   2.1600
     2.8821   2.8821   3.0798   3.0798   3.3499   4.3890   5.1276   5.8735

          k = 0.0000 0.1667 0.3334 (  5585 PWs)   bands (ev):

    -5.2961  -3.9089  -2.6992  -2.1351  -1.2338  -0.6279   0.8133   1.7553
     2.2354   2.8537   3.1630   3.2310   3.2548   3.5922   4.3600   5.2854

          k = 0.0000 0.1667-0.5002 (  5606 PWs)   bands (ev):

    -4.7110  -4.7110  -2.4104  -2.4104  -0.9016  -0.9016   1.7961   1.7961
     2.0684   2.0685   2.9234   2.9234   3.6687   3.6687   4.3710   4.3710

          k = 0.0000 0.3334 0.3334 (  5584 PWs)   bands (ev):

    -4.9514  -3.6252  -3.6252  -2.6603  -0.7540   0.3612   0.3613   1.5926
     2.2724   2.4319   2.4319   3.5821   3.7050   3.7050   3.8934   5.4298

          k = 0.0000 0.3334-0.5002 (  5616 PWs)   bands (ev):

    -4.3879  -4.3879  -3.1876  -3.1876  -0.2062  -0.2061   1.3090   1.3090
     1.8527   1.8527   2.8993   2.8993   3.9237   3.9237   4.7236   4.7236

          k = 0.0000-0.5002-0.5002 (  5552 PWs)   bands (ev):

    -3.8682  -3.8682  -3.8682  -3.8682   0.5241   0.5241   0.5241   0.5242
     2.2480   2.2480   2.2480   2.2480   4.6719   4.6719   4.6719   4.6720

          k = 0.1667 0.1667 0.1667 (  5557 PWs)   bands (ev):

    -5.5337  -2.8547  -2.8547  -2.8547  -0.5515  -0.5515  -0.5514   2.3719
     2.3719   2.3719   3.4542   3.4542   3.4542   3.6027   5.5424   5.5424

          k = 0.1667 0.1667 0.3334 (  5597 PWs)   bands (ev):

    -5.1821  -3.8188  -2.7258  -2.7258  -0.7207  -0.7206   0.5470   2.0541
     2.0541   2.5598   3.0103   3.3832   3.3833   3.7621   4.8897   5.0593

          k = 0.1667 0.1667-0.5002 (  5608 PWs)   bands (ev):

    -4.6051  -4.6051  -2.6503  -2.6503  -0.8260  -0.8259   1.5593   1.5593
     1.9925   1.9925   3.2403   3.2403   3.9962   3.9962   4.2556   4.2556

          k = 0.1667 0.3334 0.3334 (  5605 PWs)   bands (ev):

    -4.8439  -3.5645  -3.5645  -2.8801  -0.7801  -0.0157  -0.0157   1.5954
     2.1032   2.7729   2.7729   3.8752   3.8752   3.9796   4.3019   5.3125

          k = 0.1667 0.3334-0.5002 (  5614 PWs)   bands (ev):

    -4.2947  -4.2947  -3.2068  -3.2068  -0.5301  -0.5301   0.7333   0.7334
     2.4104   2.4104   3.5571   3.5572   4.0289   4.0289   4.6877   4.6877

          k = 0.1667-0.5002-0.5002 (  5628 PWs)   bands (ev):

    -3.8067  -3.8067  -3.8067  -3.8067   0.0040   0.0040   0.0040   0.0041
     2.9474   2.9474   2.9474   2.9474   4.7024   4.7024   4.7024   4.7025

          k = 0.3334 0.3334 0.3334 (  5644 PWs)   bands (ev):

    -4.5284  -3.4255  -3.4255  -3.4255  -0.5897  -0.5897  -0.5897   0.6708
     3.2150   3.2150   3.2150   4.2264   4.2264   4.2264   4.9970   4.9970

          k = 0.3334 0.3334-0.5002 (  5614 PWs)   bands (ev):

    -4.0321  -4.0321  -3.3439  -3.3439  -0.8407  -0.8407  -0.0850  -0.0849
     3.3932   3.3932   4.3532   4.3533   4.4130   4.4130   4.5933   4.5933

          k = 0.3334-0.5002-0.5002 (  5644 PWs)   bands (ev):

    -3.6657  -3.6657  -3.6657  -3.6657  -0.6719  -0.6719  -0.6719  -0.6718
     4.1152   4.1152   4.1152   4.1153   4.7667   4.7667   4.7667   4.7668

          k =-0.5002-0.5002-0.5002 (  5616 PWs)   bands (ev):

    -3.5830  -3.5830  -3.5830  -3.5830  -0.9504  -0.9504  -0.9504  -0.9503
     4.8008   4.8008   4.8008   4.8008   4.8008   4.8008   4.8009   4.8009

     highest occupied level (ev):     5.9904

!    total energy              =    -365.10760816 Ry
     Harris-Foulkes estimate   =    -365.10760816 Ry
     estimated scf accuracy    <          8.1E-13 Ry

     convergence has been achieved in   8 iterations

     Forces acting on atoms (cartesian axes, Ry/au):

     atom    1 type  1   force =     0.00000000    0.00000000    0.00000000
     atom    2 type  1   force =     0.00000000    0.00000000    0.00000000
     atom    3 type  1   force =     0.00000000    0.00000000    0.00000000
     atom    4 type  1   force =     0.00000000    0.00000000    0.00000000
     atom    5 type  1   force =     0.00011120    0.00011120    0.00011120
     atom    6 type  1   force =     0.00011120   -0.00011120   -0.00011120
     atom    7 type  1   force =    -0.00011120    0.00011120   -0.00011120
     atom    8 type  1   force =    -0.00011120   -0.00011120    0.00011120

     Total force =     0.000000     Total SCF correction =     0.000000


     Computing stress (Cartesian axis) and pressure

          total   stress  (Ry/bohr**3)                   (kbar)     P=  -13.51
  -0.00009183   0.00000000   0.00000000        -13.51      0.00      0.00
   0.00000000  -0.00009183   0.00000000          0.00    -13.51      0.00
   0.00000000   0.00000000  -0.00009183          0.00      0.00    -13.51


     Entering Dynamics;  it =     5   time =  0.00387 pico-seconds

  new lattice vectors (alat unit) :
   0.999486690   0.000000000   0.000000000
   0.000000000   0.999486690   0.000000000
   0.000000000   0.000000000   0.999486690
  new unit-cell volume =   1097.4131 (a.u.)^3
  new positions in cryst coord
Si       0.000000000   0.000000000   0.000000000
Si       0.000000000   0.500000000   0.500000000
Si       0.500000000   0.000000000   0.500000000
Si       0.500000000   0.500000000   0.000000000
Si       0.250000000   0.250000000   0.250000000
Si       0.250000000   0.750000000   0.750000000
Si       0.750000000   0.250000000   0.750000000
Si       0.750000000   0.750000000   0.250000000
  new positions in cart coord (alat unit)
Si       0.000000000   0.000000000   0.000000000
Si       0.000000000   0.499743345   0.499743345
Si       0.499743345   0.000000000   0.499743345
Si       0.499743345   0.499743345   0.000000000
Si       0.249871673   0.249871673   0.249871673
Si       0.249871673   0.749615018   0.749615018
Si       0.749615018   0.249871673   0.749615018
Si       0.749615018   0.749615018   0.249871673

     Ekin =     0.00010508 Ry    T =    0.6 K  Etot =  -365.10750308
     new unit-cell volume =   1097.41309 a.u.^3 (   162.61984 Ang^3 )
     density =      2.29433 g/cm^3

CELL_PARAMETERS (alat= 10.32000000)
   0.999486690   0.000000000   0.000000000
   0.000000000   0.999486690   0.000000000
   0.000000000   0.000000000   0.999486690

ATOMIC_POSITIONS (alat)
Si       0.000000000   0.000000000   0.000000000    0   0   0
Si       0.000000000   0.499743345   0.499743345    0   0   0
Si       0.499743345   0.000000000   0.499743345    0   0   0
Si       0.499743345   0.499743345   0.000000000    0   0   0
Si       0.249871673   0.249871673   0.249871673    0   0   0
Si       0.249871673   0.749615018   0.749615018    0   0   0
Si       0.749615018   0.249871673   0.749615018    0   0   0
Si       0.749615018   0.749615018   0.249871673    0   0   0



     Writing output data file Si.Fd-3m.8-atom.vc-relax.save/
     NEW-OLD atomic charge density approx. for the potential
     extrapolated charge   31.98292, renormalised to   32.00000

     total cpu time spent up to now is     1562.5 secs

     Self-consistent Calculation

     iteration #  1     ecut=    45.00 Ry     beta= 0.70
     CG style diagonalization
     ethr =  1.00E-06,  avg # of iterations =  2.0

     Threshold (ethr) on eigenvalues was too large:
     Diagonalizing with lowered threshold

     CG style diagonalization
     ethr =  1.47E-09,  avg # of iterations =  3.1

     total cpu time spent up to now is     1608.6 secs

     total energy              =    -365.10766022 Ry
     Harris-Foulkes estimate   =    -365.09657311 Ry
     estimated scf accuracy    <       0.00000043 Ry

     iteration #  2     ecut=    45.00 Ry     beta= 0.70
     CG style diagonalization
     ethr =  1.35E-09,  avg # of iterations =  5.1

     total cpu time spent up to now is     1647.5 secs

     total energy              =    -365.10766106 Ry
     Harris-Foulkes estimate   =    -365.10766120 Ry
     estimated scf accuracy    <       0.00000038 Ry

     iteration #  3     ecut=    45.00 Ry     beta= 0.70
     CG style diagonalization
     ethr =  1.20E-09,  avg # of iterations =  3.0

     total cpu time spent up to now is     1670.2 secs

     total energy              =    -365.10766099 Ry
     Harris-Foulkes estimate   =    -365.10766107 Ry
     estimated scf accuracy    <       0.00000012 Ry

     iteration #  4     ecut=    45.00 Ry     beta= 0.70
     CG style diagonalization
     ethr =  3.69E-10,  avg # of iterations =  4.3

     total cpu time spent up to now is     1702.4 secs

     total energy              =    -365.10766102 Ry
     Harris-Foulkes estimate   =    -365.10766104 Ry
     estimated scf accuracy    <       0.00000003 Ry

     iteration #  5     ecut=    45.00 Ry     beta= 0.70
     CG style diagonalization
     ethr =  8.10E-11,  avg # of iterations =  4.0

     total cpu time spent up to now is     1732.4 secs

     total energy              =    -365.10766103 Ry
     Harris-Foulkes estimate   =    -365.10766103 Ry
     estimated scf accuracy    <          5.8E-10 Ry

     iteration #  6     ecut=    45.00 Ry     beta= 0.70
     CG style diagonalization
     ethr =  1.82E-12,  avg # of iterations =  4.4

     total cpu time spent up to now is     1764.6 secs

     End of self-consistent calculation

          k = 0.0000 0.0000 0.0000 (  5575 PWs)   bands (ev):

    -5.8893  -1.7861  -1.7861  -1.7861  -1.7861  -1.7861  -1.7860   3.1625
     3.1625   3.1625   3.1625   3.1625   3.1625   5.9959   5.9959   5.9959

          k = 0.0000 0.0000 0.1668 (  5602 PWs)   bands (ev):

    -5.7690  -2.9846  -1.7482  -1.7482  -1.7482  -1.7482  -0.4450   2.8520
     2.8520   2.8520   2.8520   3.2711   3.2711   5.2860   5.5671   5.5671

          k = 0.0000 0.0000 0.3335 (  5578 PWs)   bands (ev):

    -5.4099  -4.0038  -1.6671  -1.6671  -1.6671  -1.6671   0.9912   2.3633
     2.3633   2.3633   2.3633   3.5936   3.5936   3.9390   4.8088   4.8088

          k = 0.0000 0.0000-0.5003 (  5622 PWs)   bands (ev):

    -4.8180  -4.8180  -1.6234  -1.6233  -1.6233  -1.6233   2.1550   2.1550
     2.1550   2.1551   2.4706   2.4706   4.1171   4.1171   4.1171   4.1171

          k = 0.0000 0.1668 0.1668 (  5603 PWs)   bands (ev):

    -5.6497  -2.9078  -2.9078  -1.9254  -1.5260  -0.4810  -0.4810   2.1633
     2.8859   2.8860   3.0837   3.0837   3.3541   4.3946   5.1326   5.8790

          k = 0.0000 0.1668 0.3335 (  5585 PWs)   bands (ev):

    -5.2940  -3.9061  -2.6958  -2.1312  -1.2298  -0.6234   0.8183   1.7584
     2.2389   2.8574   3.1670   3.2351   3.2602   3.5965   4.3645   5.2907

          k = 0.0000 0.1668-0.5003 (  5606 PWs)   bands (ev):

    -4.7086  -4.7086  -2.4067  -2.4067  -0.8974  -0.8973   1.7992   1.7992
     2.0737   2.0738   2.9272   2.9272   3.6730   3.6730   4.3757   4.3758

          k = 0.0000 0.3335 0.3335 (  5584 PWs)   bands (ev):

    -4.9491  -3.6222  -3.6222  -2.6567  -0.7498   0.3659   0.3659   1.5956
     2.2775   2.4354   2.4355   3.5863   3.7092   3.7092   3.8978   5.4352

          k = 0.0000 0.3335-0.5003 (  5616 PWs)   bands (ev):

    -4.3853  -4.3853  -3.1844  -3.1844  -0.2018  -0.2018   1.3138   1.3139
     1.8559   1.8560   2.9031   2.9031   3.9281   3.9281   4.7285   4.7285

          k = 0.0000-0.5003-0.5003 (  5552 PWs)   bands (ev):

    -3.8654  -3.8653  -3.8653  -3.8653   0.5286   0.5286   0.5286   0.5287
     2.2515   2.2515   2.2515   2.2515   4.6768   4.6768   4.6768   4.6769

          k = 0.1668 0.1668 0.1668 (  5557 PWs)   bands (ev):

    -5.5316  -2.8513  -2.8513  -2.8513  -0.5471  -0.5471  -0.5470   2.3754
     2.3754   2.3754   3.4584   3.4584   3.4584   3.6078   5.5477   5.5477

          k = 0.1668 0.1668 0.3335 (  5597 PWs)   bands (ev):

    -5.1799  -3.8159  -2.7223  -2.7223  -0.7165  -0.7165   0.5516   2.0575
     2.0575   2.5647   3.0143   3.3873   3.3874   3.7665   4.8947   5.0646

          k = 0.1668 0.1668-0.5003 (  5608 PWs)   bands (ev):

    -4.6026  -4.6026  -2.6467  -2.6467  -0.8220  -0.8219   1.5640   1.5640
     1.9959   1.9960   3.2442   3.2443   4.0009   4.0009   4.2602   4.2602

          k = 0.1668 0.3335 0.3335 (  5605 PWs)   bands (ev):

    -4.8415  -3.5615  -3.5615  -2.8766  -0.7764  -0.0116  -0.0116   1.5998
     2.1068   2.7769   2.7769   3.8796   3.8796   3.9841   4.3067   5.3178

          k = 0.1668 0.3335-0.5003 (  5614 PWs)   bands (ev):

    -4.2921  -4.2921  -3.2035  -3.2035  -0.5263  -0.5263   0.7375   0.7376
     2.4142   2.4143   3.5616   3.5617   4.0333   4.0334   4.6926   4.6927

          k = 0.1668-0.5003-0.5003 (  5628 PWs)   bands (ev):

    -3.8037  -3.8037  -3.8037  -3.8037   0.0078   0.0078   0.0078   0.0079
     2.9515   2.9516   2.9516   2.9516   4.7073   4.7073   4.7073   4.7074

          k = 0.3335 0.3335 0.3335 (  5644 PWs)   bands (ev):

    -4.5258  -3.4223  -3.4223  -3.4223  -0.5862  -0.5862  -0.5862   0.6747
     3.2194   3.2195   3.2195   4.2310   4.2311   4.2311   5.0021   5.0021

          k = 0.3335 0.3335-0.5003 (  5614 PWs)   bands (ev):

    -4.0293  -4.0293  -3.3406  -3.3406  -0.8375  -0.8374  -0.0814  -0.0813
     3.3977   3.3978   4.3579   4.3580   4.4180   4.4180   4.5981   4.5981

          k = 0.3335-0.5003-0.5003 (  5644 PWs)   bands (ev):

    -3.6626  -3.6626  -3.6626  -3.6626  -0.6686  -0.6686  -0.6686  -0.6685
     4.1201   4.1201   4.1201   4.1202   4.7717   4.7717   4.7717   4.7718

          k =-0.5003-0.5003-0.5003 (  5616 PWs)   bands (ev):

    -3.5798  -3.5798  -3.5798  -3.5798  -0.9474  -0.9474  -0.9474  -0.9473
     4.8058   4.8058   4.8058   4.8058   4.8058   4.8058   4.8059   4.8059

     highest occupied level (ev):     5.9959

!    total energy              =    -365.10766103 Ry
     Harris-Foulkes estimate   =    -365.10766103 Ry
     estimated scf accuracy    <          6.9E-13 Ry

     convergence has been achieved in   6 iterations

     Forces acting on atoms (cartesian axes, Ry/au):

     atom    1 type  1   force =     0.00000000    0.00000000    0.00000000
     atom    2 type  1   force =     0.00000000    0.00000000    0.00000000
     atom    3 type  1   force =     0.00000000    0.00000000    0.00000000
     atom    4 type  1   force =     0.00000000    0.00000000    0.00000000
     atom    5 type  1   force =     0.00011081    0.00011081    0.00011081
     atom    6 type  1   force =     0.00011081   -0.00011081   -0.00011081
     atom    7 type  1   force =    -0.00011081    0.00011081   -0.00011081
     atom    8 type  1   force =    -0.00011081   -0.00011081    0.00011081

     Total force =     0.000000     Total SCF correction =     0.000000


     Computing stress (Cartesian axis) and pressure

          total   stress  (Ry/bohr**3)                   (kbar)     P=  -13.04
  -0.00008862   0.00000000   0.00000000        -13.04      0.00      0.00
   0.00000000  -0.00008862   0.00000000          0.00    -13.04      0.00
   0.00000000   0.00000000  -0.00008862          0.00      0.00    -13.04


     Entering Dynamics;  it =     6   time =  0.00484 pico-seconds

  new lattice vectors (alat unit) :
   0.999273346   0.000000000   0.000000000
   0.000000000   0.999273346   0.000000000
   0.000000000   0.000000000   0.999273346
  new unit-cell volume =   1096.7105 (a.u.)^3
  new positions in cryst coord
Si       0.000000000   0.000000000   0.000000000
Si       0.000000000   0.500000000   0.500000000
Si       0.500000000   0.000000000   0.500000000
Si       0.500000000   0.500000000   0.000000000
Si       0.250000000   0.250000000   0.250000000
Si       0.250000000   0.750000000   0.750000000
Si       0.750000000   0.250000000   0.750000000
Si       0.750000000   0.750000000   0.250000000
  new positions in cart coord (alat unit)
Si       0.000000000   0.000000000   0.000000000
Si       0.000000000   0.499636673   0.499636673
Si       0.499636673   0.000000000   0.499636673
Si       0.499636673   0.499636673   0.000000000
Si       0.249818337   0.249818337   0.249818337
Si       0.249818337   0.749455010   0.749455010
Si       0.749455010   0.249818337   0.749455010
Si       0.749455010   0.749455010   0.249818337

     Ekin =     0.00015797 Ry    T =    0.8 K  Etot =  -365.10750306
     new unit-cell volume =   1096.71050 a.u.^3 (   162.51573 Ang^3 )
     density =      2.29580 g/cm^3

CELL_PARAMETERS (alat= 10.32000000)
   0.999273346   0.000000000   0.000000000
   0.000000000   0.999273346   0.000000000
   0.000000000   0.000000000   0.999273346

ATOMIC_POSITIONS (alat)
Si       0.000000000   0.000000000   0.000000000    0   0   0
Si       0.000000000   0.499636673   0.499636673    0   0   0
Si       0.499636673   0.000000000   0.499636673    0   0   0
Si       0.499636673   0.499636673   0.000000000    0   0   0
Si       0.249818337   0.249818337   0.249818337    0   0   0
Si       0.249818337   0.749455010   0.749455010    0   0   0
Si       0.749455010   0.249818337   0.749455010    0   0   0
Si       0.749455010   0.749455010   0.249818337    0   0   0



     Writing output data file Si.Fd-3m.8-atom.vc-relax.save/
     NEW-OLD atomic charge density approx. for the potential
     extrapolated charge   31.97950, renormalised to   32.00000

     total cpu time spent up to now is     1794.6 secs

     Self-consistent Calculation

     iteration #  1     ecut=    45.00 Ry     beta= 0.70
     CG style diagonalization
     ethr =  1.00E-06,  avg # of iterations =  2.0

     Threshold (ethr) on eigenvalues was too large:
     Diagonalizing with lowered threshold

     CG style diagonalization
     ethr =  2.11E-09,  avg # of iterations =  3.1

     total cpu time spent up to now is     1840.7 secs

     total energy              =    -365.10772077 Ry
     Harris-Foulkes estimate   =    -365.09441185 Ry
     estimated scf accuracy    <       0.00000062 Ry

     iteration #  2     ecut=    45.00 Ry     beta= 0.70
     CG style diagonalization
     ethr =  1.94E-09,  avg # of iterations =  5.1

     total cpu time spent up to now is     1879.2 secs

     total energy              =    -365.10772198 Ry
     Harris-Foulkes estimate   =    -365.10772218 Ry
     estimated scf accuracy    <       0.00000055 Ry

     iteration #  3     ecut=    45.00 Ry     beta= 0.70
     CG style diagonalization
     ethr =  1.73E-09,  avg # of iterations =  3.0

     total cpu time spent up to now is     1901.6 secs

     total energy              =    -365.10772189 Ry
     Harris-Foulkes estimate   =    -365.10772200 Ry
     estimated scf accuracy    <       0.00000017 Ry

     iteration #  4     ecut=    45.00 Ry     beta= 0.70
     CG style diagonalization
     ethr =  5.29E-10,  avg # of iterations =  4.3

     total cpu time spent up to now is     1933.4 secs

     total energy              =    -365.10772193 Ry
     Harris-Foulkes estimate   =    -365.10772195 Ry
     estimated scf accuracy    <       0.00000004 Ry

     iteration #  5     ecut=    45.00 Ry     beta= 0.70
     CG style diagonalization
     ethr =  1.14E-10,  avg # of iterations =  3.9

     total cpu time spent up to now is     1962.9 secs

     total energy              =    -365.10772194 Ry
     Harris-Foulkes estimate   =    -365.10772194 Ry
     estimated scf accuracy    <          2.4E-10 Ry

     iteration #  6     ecut=    45.00 Ry     beta= 0.70
     CG style diagonalization
     ethr =  7.38E-13,  avg # of iterations =  4.9

     total cpu time spent up to now is     1999.7 secs

     total energy              =    -365.10772194 Ry
     Harris-Foulkes estimate   =    -365.10772194 Ry
     estimated scf accuracy    <          3.0E-12 Ry

     iteration #  7     ecut=    45.00 Ry     beta= 0.70
     CG style diagonalization
     ethr =  1.00E-13,  avg # of iterations =  3.4

     total cpu time spent up to now is     2025.6 secs

     total energy              =    -365.10772194 Ry
     Harris-Foulkes estimate   =    -365.10772194 Ry
     estimated scf accuracy    <          5.6E-12 Ry

     iteration #  8     ecut=    45.00 Ry     beta= 0.70
     CG style diagonalization
     ethr =  1.00E-13,  avg # of iterations =  3.0

     total cpu time spent up to now is     2048.4 secs

     total energy              =    -365.10772194 Ry
     Harris-Foulkes estimate   =    -365.10772194 Ry
     estimated scf accuracy    <          3.5E-12 Ry

     iteration #  9     ecut=    45.00 Ry     beta= 0.70
     CG style diagonalization
     ethr =  1.00E-13,  avg # of iterations =  3.0

     total cpu time spent up to now is     2070.9 secs

     End of self-consistent calculation

          k = 0.0000 0.0000 0.0000 (  5575 PWs)   bands (ev):

    -5.8870  -1.7815  -1.7815  -1.7815  -1.7815  -1.7815  -1.7815   3.1674
     3.1674   3.1674   3.1674   3.1674   3.1674   6.0025   6.0025   6.0025

          k = 0.0000 0.0000 0.1668 (  5602 PWs)   bands (ev):

    -5.7667  -2.9807  -1.7436  -1.7436  -1.7436  -1.7436  -0.4397   2.8566
     2.8566   2.8566   2.8567   3.2761   3.2761   5.2931   5.5734   5.5734

          k = 0.0000 0.0000 0.3336 (  5578 PWs)   bands (ev):

    -5.4074  -4.0005  -1.6623  -1.6623  -1.6623  -1.6623   0.9973   2.3674
     2.3674   2.3674   2.3674   3.5987   3.5987   3.9462   4.8146   4.8146

          k = 0.0000 0.0000-0.5004 (  5622 PWs)   bands (ev):

    -4.8152  -4.8152  -1.6185  -1.6185  -1.6185  -1.6185   2.1589   2.1590
     2.1590   2.1590   2.4773   2.4774   4.1225   4.1225   4.1225   4.1225

          k = 0.0000 0.1668 0.1668 (  5603 PWs)   bands (ev):

    -5.6473  -2.9039  -2.9039  -1.9207  -1.5213  -0.4757  -0.4757   2.1673
     2.8906   2.8906   3.0885   3.0885   3.3591   4.4013   5.1385   5.8856

          k = 0.0000 0.1668 0.3336 (  5585 PWs)   bands (ev):

    -5.2914  -3.9027  -2.6916  -2.1266  -1.2249  -0.6182   0.8242   1.7620
     2.2430   2.8619   3.1718   3.2399   3.2667   3.6016   4.3700   5.2971

          k = 0.0000 0.1668-0.5004 (  5606 PWs)   bands (ev):

    -4.7057  -4.7056  -2.4023  -2.4023  -0.8923  -0.8923   1.8029   1.8030
     2.0800   2.0801   2.9317   2.9317   3.6780   3.6781   4.3814   4.3815

          k = 0.0000 0.3336 0.3336 (  5584 PWs)   bands (ev):

    -4.9463  -3.6187  -3.6187  -2.6524  -0.7448   0.3715   0.3715   1.5992
     2.2835   2.4397   2.4398   3.5913   3.7143   3.7144   3.9032   5.4415

          k = 0.0000 0.3336-0.5004 (  5616 PWs)   bands (ev):

    -4.3822  -4.3822  -3.1805  -3.1804  -0.1966  -0.1965   1.3197   1.3197
     1.8598   1.8598   2.9077   2.9077   3.9334   3.9335   4.7344   4.7345

          k = 0.0000-0.5004-0.5004 (  5552 PWs)   bands (ev):

    -3.8619  -3.8619  -3.8619  -3.8619   0.5341   0.5341   0.5341   0.5342
     2.2556   2.2556   2.2556   2.2557   4.6827   4.6827   4.6827   4.6828

          k = 0.1668 0.1668 0.1668 (  5557 PWs)   bands (ev):

    -5.5292  -2.8473  -2.8473  -2.8473  -0.5418  -0.5418  -0.5418   2.3796
     2.3796   2.3796   3.4635   3.4635   3.4635   3.6140   5.5540   5.5540

          k = 0.1668 0.1668 0.3336 (  5597 PWs)   bands (ev):

    -5.1772  -3.8125  -2.7181  -2.7181  -0.7116  -0.7115   0.5572   2.0615
     2.0615   2.5705   3.0191   3.3923   3.3923   3.7718   4.9006   5.0709

          k = 0.1668 0.1668-0.5004 (  5608 PWs)   bands (ev):

    -4.5996  -4.5996  -2.6424  -2.6424  -0.8172  -0.8172   1.5697   1.5697
     2.0001   2.0001   3.2490   3.2490   4.0066   4.0067   4.2657   4.2658

          k = 0.1668 0.3336 0.3336 (  5605 PWs)   bands (ev):

    -4.8386  -3.5578  -3.5578  -2.8724  -0.7719  -0.0066  -0.0066   1.6051
     2.1111   2.7818   2.7818   3.8849   3.8849   3.9895   4.3124   5.3241

          k = 0.1668 0.3336-0.5004 (  5614 PWs)   bands (ev):

    -4.2889  -4.2889  -3.1995  -3.1995  -0.5218  -0.5217   0.7426   0.7426
     2.4189   2.4189   3.5670   3.5670   4.0387   4.0388   4.6986   4.6986

          k = 0.1668-0.5004-0.5004 (  5628 PWs)   bands (ev):

    -3.8002  -3.8002  -3.8002  -3.8002   0.0125   0.0125   0.0125   0.0126
     2.9566   2.9566   2.9566   2.9566   4.7132   4.7133   4.7133   4.7133

          k = 0.3336 0.3336 0.3336 (  5644 PWs)   bands (ev):

    -4.5228  -3.4185  -3.4185  -3.4185  -0.5820  -0.5820  -0.5819   0.6794
     3.2248   3.2248   3.2248   4.2366   4.2367   4.2367   5.0082   5.0082

          k = 0.3336 0.3336-0.5004 (  5614 PWs)   bands (ev):

    -4.0259  -4.0259  -3.3366  -3.3366  -0.8336  -0.8335  -0.0770  -0.0770
     3.4032   3.4032   4.3636   4.3636   4.4240   4.4241   4.6039   4.6040

          k = 0.3336-0.5004-0.5004 (  5644 PWs)   bands (ev):

    -3.6589  -3.6589  -3.6589  -3.6589  -0.6647  -0.6647  -0.6647  -0.6646
     4.1259   4.1259   4.1259   4.1260   4.7777   4.7777   4.7777   4.7778

          k =-0.5004-0.5004-0.5004 (  5616 PWs)   bands (ev):

    -3.5759  -3.5759  -3.5759  -3.5759  -0.9437  -0.9437  -0.9437  -0.9436
     4.8118   4.8118   4.8118   4.8119   4.8119   4.8119   4.8120   4.8120

     highest occupied level (ev):     6.0025

!    total energy              =    -365.10772194 Ry
     Harris-Foulkes estimate   =    -365.10772194 Ry
     estimated scf accuracy    <          1.1E-13 Ry

     convergence has been achieved in   9 iterations

[...]

          k = 0.0000 0.1675 0.1675 (  5603 PWs)   bands (ev):

    -5.6012  -2.8275  -2.8275  -1.8306  -1.4311  -0.3725  -0.3725   2.2447
     2.9806   2.9806   3.1801   3.1801   3.4570   4.5301   5.2539   6.0135

          k = 0.0000 0.1675 0.3349 (  5585 PWs)   bands (ev):

    -5.2414  -3.8375  -2.6113  -2.0371  -1.1314  -0.5158   0.9394   1.8329
     2.3227   2.9477   3.2651   3.3338   3.3925   3.7001   4.4762   5.4200

          k = 0.0000 0.1675-0.5024 (  5606 PWs)   bands (ev):

    -4.6493  -4.6493  -2.3167  -2.3167  -0.7938  -0.7938   1.8753   1.8753
     2.2024   2.2025   3.0189   3.0190   3.7767   3.7768   4.4918   4.4919

          k = 0.0000 0.3349 0.3349 (  5584 PWs)   bands (ev):

    -4.8925  -3.5494  -3.5494  -2.5690  -0.6486   0.4800   0.4801   1.6690
     2.4012   2.5229   2.5229   3.6882   3.8134   3.8134   4.0075   5.5654

          k = 0.0000 0.3349-0.5024 (  5616 PWs)   bands (ev):

    -4.3218  -4.3218  -3.1047  -3.1047  -0.0952  -0.0951   1.4322   1.4322
     1.9346   1.9346   2.9967   2.9967   4.0364   4.0364   4.8491   4.8492

          k = 0.0000-0.5024-0.5024 (  5552 PWs)   bands (ev):

    -3.7950  -3.7950  -3.7950  -3.7949   0.6397   0.6397   0.6398   0.6398
     2.3364   2.3364   2.3364   2.3365   4.7968   4.7968   4.7968   4.7969

          k = 0.1675 0.1675 0.1675 (  5557 PWs)   bands (ev):

    -5.4818  -2.7694  -2.7694  -2.7694  -0.4403  -0.4403  -0.4402   2.4607
     2.4607   2.4607   3.5624   3.5625   3.5625   3.7327   5.6769   5.6769

          k = 0.1675 0.1675 0.3349 (  5597 PWs)   bands (ev):

    -5.1260  -3.7458  -2.6366  -2.6366  -0.6155  -0.6154   0.6653   2.1403
     2.1403   2.6831   3.1125   3.4877   3.4878   3.8738   5.0150   5.1936

          k = 0.1675 0.1675-0.5024 (  5608 PWs)   bands (ev):

    -4.5419  -4.5419  -2.5585  -2.5585  -0.7251  -0.7250   1.6795   1.6795
     2.0802   2.0802   3.3405   3.3405   4.1172   4.1172   4.3730   4.3730

          k = 0.1675 0.3349 0.3349 (  5605 PWs)   bands (ev):

    -4.7834  -3.4871  -3.4871  -2.7908  -0.6848   0.0893   0.0894   1.7081
     2.1944   2.8761   2.8761   3.9869   3.9869   4.0949   4.4234   5.4466

          k = 0.1675 0.3349-0.5024 (  5614 PWs)   bands (ev):

    -4.2271  -4.2271  -3.1227  -3.1227  -0.4342  -0.4342   0.8402   0.8402
     2.5087   2.5087   3.6712   3.6713   4.1431   4.1431   4.8134   4.8134

          k = 0.1675-0.5024-0.5024 (  5628 PWs)   bands (ev):

    -3.7318  -3.7318  -3.7318  -3.7318   0.1026   0.1026   0.1026   0.1027
     3.0537   3.0537   3.0537   3.0538   4.8281   4.8281   4.8281   4.8282

          k = 0.3349 0.3349 0.3349 (  5644 PWs)   bands (ev):

    -4.4635  -3.3440  -3.3440  -3.3440  -0.5005  -0.5005  -0.5004   0.7710
     3.3280   3.3280   3.3280   4.3450   4.3451   4.3451   5.1266   5.1266

          k = 0.3349 0.3349-0.5024 (  5614 PWs)   bands (ev):

    -3.9600  -3.9599  -3.2596  -3.2596  -0.7580  -0.7580   0.0072   0.0072
     3.5093   3.5093   4.4730   4.4730   4.5409   4.5410   4.7170   4.7171

          k = 0.3349-0.5024-0.5024 (  5644 PWs)   bands (ev):

    -3.5868  -3.5868  -3.5868  -3.5868  -0.5888  -0.5888  -0.5888  -0.5887
     4.2383   4.2383   4.2383   4.2384   4.8941   4.8941   4.8941   4.8942

          k =-0.5024-0.5024-0.5024 (  5616 PWs)   bands (ev):

    -3.5013  -3.5013  -3.5013  -3.5013  -0.8735  -0.8735  -0.8735  -0.8734
     4.9291   4.9291   4.9291   4.9291   4.9291   4.9291   4.9292   4.9292

     highest occupied level (ev):     6.1306

!    total energy              =    -365.10835366 Ry
     Harris-Foulkes estimate   =    -365.10835366 Ry
     estimated scf accuracy    <          2.3E-13 Ry

     convergence has been achieved in   9 iterations

     Forces acting on atoms (cartesian axes, Ry/au):

     atom    1 type  1   force =     0.00000000    0.00000000    0.00000000
     atom    2 type  1   force =     0.00000000    0.00000000    0.00000000
     atom    3 type  1   force =     0.00000000    0.00000000    0.00000000
     atom    4 type  1   force =     0.00000000    0.00000000    0.00000000
     atom    5 type  1   force =     0.00010120    0.00010120    0.00010120
     atom    6 type  1   force =     0.00010120   -0.00010120   -0.00010120
     atom    7 type  1   force =    -0.00010120    0.00010120   -0.00010120
     atom    8 type  1   force =    -0.00010120   -0.00010120    0.00010120

     Total force =     0.000000     Total SCF correction =     0.000000


     Computing stress (Cartesian axis) and pressure

          total   stress  (Ry/bohr**3)                   (kbar)     P=   -1.24
  -0.00000843   0.00000000   0.00000000         -1.24      0.00      0.00
   0.00000000  -0.00000843   0.00000000          0.00     -1.24      0.00
   0.00000000   0.00000000  -0.00000843          0.00      0.00     -1.24


     Entering Dynamics;  it =    18   time =  0.01646 pico-seconds

  new lattice vectors (alat unit) :
   0.994715538   0.000000000   0.000000000
   0.000000000   0.994715538   0.000000000
   0.000000000   0.000000000   0.994715538
  new unit-cell volume =   1081.7722 (a.u.)^3
  new positions in cryst coord
Si       0.000000000   0.000000000   0.000000000
Si      -0.000000000   0.500000000   0.500000000
Si       0.500000000  -0.000000000   0.500000000
Si       0.500000000   0.500000000  -0.000000000
Si       0.250000000   0.250000000   0.250000000
Si       0.250000000   0.750000000   0.750000000
Si       0.750000000   0.250000000   0.750000000
Si       0.750000000   0.750000000   0.250000000
  new positions in cart coord (alat unit)
Si       0.000000000   0.000000000   0.000000000
Si      -0.000000000   0.497357769   0.497357769
Si       0.497357769  -0.000000000   0.497357769
Si       0.497357769   0.497357769  -0.000000000
Si       0.248678885   0.248678885   0.248678885
Si       0.248678885   0.746036654   0.746036654
Si       0.746036654   0.248678885   0.746036654
Si       0.746036654   0.746036654   0.248678885

     Ekin =     0.00085115 Ry    T =    5.0 K  Etot =  -365.10750251
     new unit-cell volume =   1081.77215 a.u.^3 (   160.30209 Ang^3 )
     density =      2.32750 g/cm^3

CELL_PARAMETERS (alat= 10.32000000)
   0.994715538   0.000000000   0.000000000
   0.000000000   0.994715538   0.000000000
   0.000000000   0.000000000   0.994715538

ATOMIC_POSITIONS (alat)
Si       0.000000000   0.000000000   0.000000000    0   0   0
Si      -0.000000000   0.497357769   0.497357769    0   0   0
Si       0.497357769  -0.000000000   0.497357769    0   0   0
Si       0.497357769   0.497357769  -0.000000000    0   0   0
Si       0.248678885   0.248678885   0.248678885    0   0   0
Si       0.248678885   0.746036654   0.746036654    0   0   0
Si       0.746036654   0.248678885   0.746036654    0   0   0
Si       0.746036654   0.746036654   0.248678885    0   0   0



     Writing output data file Si.Fd-3m.8-atom.vc-relax.save/
     NEW-OLD atomic charge density approx. for the potential
     extrapolated charge   31.95561, renormalised to   32.00000

     total cpu time spent up to now is     5542.3 secs

     Self-consistent Calculation

     iteration #  1     ecut=    45.00 Ry     beta= 0.70
     CG style diagonalization
     ethr =  1.00E-06,  avg # of iterations =  2.0

     Threshold (ethr) on eigenvalues was too large:
     Diagonalizing with lowered threshold

     CG style diagonalization
     ethr =  9.74E-09,  avg # of iterations =  3.1

     total cpu time spent up to now is     5588.3 secs

     total energy              =    -365.10835422 Ry
     Harris-Foulkes estimate   =    -365.07927284 Ry
     estimated scf accuracy    <       0.00000286 Ry

     iteration #  2     ecut=    45.00 Ry     beta= 0.70
     CG style diagonalization
     ethr =  8.93E-09,  avg # of iterations =  5.1

     total cpu time spent up to now is     5627.0 secs

     total energy              =    -365.10835985 Ry
     Harris-Foulkes estimate   =    -365.10836076 Ry
     estimated scf accuracy    <       0.00000258 Ry

     iteration #  3     ecut=    45.00 Ry     beta= 0.70
     CG style diagonalization
     ethr =  8.07E-09,  avg # of iterations =  3.0

     total cpu time spent up to now is     5649.8 secs

     total energy              =    -365.10835946 Ry
     Harris-Foulkes estimate   =    -365.10835995 Ry
     estimated scf accuracy    <       0.00000080 Ry

     iteration #  4     ecut=    45.00 Ry     beta= 0.70
     CG style diagonalization
     ethr =  2.49E-09,  avg # of iterations =  4.2

     total cpu time spent up to now is     5681.8 secs

     total energy              =    -365.10835965 Ry
     Harris-Foulkes estimate   =    -365.10835974 Ry
     estimated scf accuracy    <       0.00000017 Ry

     iteration #  5     ecut=    45.00 Ry     beta= 0.70
     CG style diagonalization
     ethr =  5.27E-10,  avg # of iterations =  4.0

     total cpu time spent up to now is     5711.9 secs

     total energy              =    -365.10835968 Ry
     Harris-Foulkes estimate   =    -365.10835968 Ry
     estimated scf accuracy    <          4.3E-09 Ry

     iteration #  6     ecut=    45.00 Ry     beta= 0.70
     CG style diagonalization
     ethr =  1.34E-11,  avg # of iterations =  4.4

     total cpu time spent up to now is     5745.0 secs

     total energy              =    -365.10835968 Ry
     Harris-Foulkes estimate   =    -365.10835968 Ry
     estimated scf accuracy    <          3.5E-11 Ry

     iteration #  7     ecut=    45.00 Ry     beta= 0.70
     CG style diagonalization
     ethr =  1.11E-13,  avg # of iterations =  5.4

     total cpu time spent up to now is     5785.8 secs

     total energy              =    -365.10835968 Ry
     Harris-Foulkes estimate   =    -365.10835968 Ry
     estimated scf accuracy    <          5.6E-12 Ry

     iteration #  8     ecut=    45.00 Ry     beta= 0.70
     CG style diagonalization
     ethr =  1.00E-13,  avg # of iterations =  3.0

     total cpu time spent up to now is     5808.5 secs

     total energy              =    -365.10835968 Ry
     Harris-Foulkes estimate   =    -365.10835968 Ry
     estimated scf accuracy    <          1.5E-11 Ry

     iteration #  9     ecut=    45.00 Ry     beta= 0.70
     CG style diagonalization
     ethr =  1.00E-13,  avg # of iterations =  3.0

     total cpu time spent up to now is     5831.2 secs

     End of self-consistent calculation

          k = 0.0000 0.0000 0.0000 (  5575 PWs)   bands (ev):

    -5.8385  -1.6833  -1.6833  -1.6833  -1.6833  -1.6833  -1.6833   3.2739
     3.2739   3.2739   3.2740   3.2740   3.2740   6.1451   6.1451   6.1451

          k = 0.0000 0.0000 0.1676 (  5602 PWs)   bands (ev):

    -5.7168  -2.8972  -1.6440  -1.6440  -1.6440  -1.6440  -0.3252   2.9559
     2.9560   2.9560   2.9560   3.3838   3.3838   5.4466   5.7087   5.7087

          k = 0.0000 0.0000 0.3351 (  5578 PWs)   bands (ev):

    -5.3533  -3.9295  -1.5597  -1.5597  -1.5597  -1.5596   1.1282   2.4563
     2.4563   2.4563   2.4563   3.7099   3.7099   4.1007   4.9397   4.9397

          k = 0.0000 0.0000-0.5027 (  5622 PWs)   bands (ev):

    -4.7539  -4.7539  -1.5141  -1.5140  -1.5140  -1.5140   2.2434   2.2434
     2.2434   2.2435   2.6225   2.6226   4.2394   4.2394   4.2395   4.2395

          k = 0.0000 0.1676 0.1676 (  5603 PWs)   bands (ev):

    -5.5960  -2.8189  -2.8188  -1.8204  -1.4208  -0.3608  -0.3608   2.2535
     2.9908   2.9908   3.1905   3.1905   3.4681   4.5447   5.2669   6.0280

          k = 0.0000 0.1676 0.3351 (  5585 PWs)   bands (ev):

    -5.2358  -3.8301  -2.6022  -2.0269  -1.1209  -0.5042   0.9524   1.8409
     2.3318   2.9575   3.2756   3.3444   3.4067   3.7112   4.4882   5.4340

          k = 0.0000 0.1676-0.5027 (  5606 PWs)   bands (ev):

    -4.6429  -4.6429  -2.3070  -2.3070  -0.7827  -0.7827   1.8834   1.8834
     2.2163   2.2163   3.0288   3.0288   3.7879   3.7879   4.5043   4.5044

          k = 0.0000 0.3351 0.3351 (  5584 PWs)   bands (ev):

    -4.8864  -3.5415  -3.5415  -2.5596  -0.6378   0.4923   0.4924   1.6769
     2.4145   2.5323   2.5323   3.6991   3.8246   3.8246   4.0193   5.5794

          k = 0.0000 0.3351-0.5027 (  5616 PWs)   bands (ev):

    -4.3150  -4.3150  -3.0961  -3.0961  -0.0837  -0.0837   1.4449   1.4450
     1.9431   1.9431   3.0068   3.0068   4.0480   4.0481   4.8621   4.8622

          k = 0.0000-0.5027-0.5027 (  5552 PWs)   bands (ev):

    -3.7874  -3.7874  -3.7874  -3.7874   0.6517   0.6517   0.6517   0.6518
     2.3456   2.3456   2.3456   2.3456   4.8097   4.8098   4.8098   4.8099

          k = 0.1676 0.1676 0.1676 (  5557 PWs)   bands (ev):

    -5.4764  -2.7606  -2.7606  -2.7606  -0.4288  -0.4288  -0.4288   2.4699
     2.4699   2.4699   3.5736   3.5737   3.5737   3.7461   5.6908   5.6908

          k = 0.1676 0.1676 0.3351 (  5597 PWs)   bands (ev):

    -5.1202  -3.7383  -2.6274  -2.6274  -0.6046  -0.6046   0.6775   2.1493
     2.1493   2.6958   3.1231   3.4985   3.4986   3.8853   5.0279   5.2075

          k = 0.1676 0.1676-0.5027 (  5608 PWs)   bands (ev):

    -4.5354  -4.5354  -2.5490  -2.5490  -0.7147  -0.7146   1.6919   1.6919
     2.0893   2.0893   3.3508   3.3509   4.1297   4.1298   4.3851   4.3852

          k = 0.1676 0.3351 0.3351 (  5605 PWs)   bands (ev):

    -4.7772  -3.4791  -3.4791  -2.7816  -0.6749   0.1002   0.1002   1.7198
     2.2039   2.8868   2.8868   3.9984   3.9984   4.1068   4.4360   5.4605

          k = 0.1676 0.3351-0.5027 (  5614 PWs)   bands (ev):

    -4.2201  -4.2201  -3.1140  -3.1140  -0.4243  -0.4243   0.8512   0.8512
     2.5189   2.5189   3.6831   3.6831   4.1549   4.1550   4.8264   4.8264

          k = 0.1676-0.5027-0.5027 (  5628 PWs)   bands (ev):

    -3.7241  -3.7241  -3.7241  -3.7241   0.1127   0.1127   0.1128   0.1128
     3.0647   3.0647   3.0647   3.0648   4.8411   4.8411   4.8411   4.8412

          k = 0.3351 0.3351 0.3351 (  5644 PWs)   bands (ev):

    -4.4568  -3.3356  -3.3356  -3.3356  -0.4913  -0.4913  -0.4913   0.7813
     3.3397   3.3397   3.3397   4.3573   4.3573   4.3573   5.1400   5.1400

          k = 0.3351 0.3351-0.5027 (  5614 PWs)   bands (ev):

    -3.9525  -3.9525  -3.2509  -3.2509  -0.7495  -0.7494   0.0167   0.0167
     3.5213   3.5213   4.4853   4.4854   4.5541   4.5542   4.7298   4.7299

          k = 0.3351-0.5027-0.5027 (  5644 PWs)   bands (ev):

    -3.5786  -3.5786  -3.5786  -3.5786  -0.5802  -0.5802  -0.5802  -0.5801
     4.2510   4.2510   4.2510   4.2511   4.9072   4.9073   4.9073   4.9074

          k =-0.5027-0.5027-0.5027 (  5616 PWs)   bands (ev):

    -3.4928  -3.4928  -3.4928  -3.4928  -0.8656  -0.8656  -0.8656  -0.8655
     4.9423   4.9423   4.9423   4.9424   4.9424   4.9424   4.9425   4.9425

     highest occupied level (ev):     6.1451

!    total energy              =    -365.10835968 Ry
     Harris-Foulkes estimate   =    -365.10835968 Ry
     estimated scf accuracy    <          6.3E-13 Ry

     convergence has been achieved in   9 iterations

     Forces acting on atoms (cartesian axes, Ry/au):

     atom    1 type  1   force =     0.00000000    0.00000000    0.00000000
     atom    2 type  1   force =     0.00000000    0.00000000    0.00000000
     atom    3 type  1   force =     0.00000000    0.00000000    0.00000000
     atom    4 type  1   force =     0.00000000    0.00000000    0.00000000
     atom    5 type  1   force =     0.00010007    0.00010007    0.00010007
     atom    6 type  1   force =     0.00010007   -0.00010007   -0.00010007
     atom    7 type  1   force =    -0.00010007    0.00010007   -0.00010007
     atom    8 type  1   force =    -0.00010007   -0.00010007    0.00010007

     Total force =     0.000000     Total SCF correction =     0.000000


     Computing stress (Cartesian axis) and pressure

          total   stress  (Ry/bohr**3)                   (kbar)     P=    0.06
   0.00000041   0.00000000   0.00000000          0.06      0.00      0.00
   0.00000000   0.00000041   0.00000000          0.00      0.06      0.00
   0.00000000   0.00000000   0.00000041          0.00      0.00      0.06


     Wentzcovitch Damped Cell Dynamics Minimization:
     convergence achieved, Efinal=  -365.10835968

------------------------------------------------------------------------

     Final estimate of lattice vectors (input alat units)
   0.994715538   0.000000000   0.000000000
   0.000000000   0.994715538   0.000000000
   0.000000000   0.000000000   0.994715538
  final unit-cell volume =   1081.7722 (a.u.)^3
  input alat =      10.3200 (a.u.)
Begin final coordinates
     new unit-cell volume =   1081.77215 a.u.^3 (   160.30209 Ang^3 )
     density =      2.32750 g/cm^3

CELL_PARAMETERS (alat= 10.32000000)
   0.994715538   0.000000000   0.000000000
   0.000000000   0.994715538   0.000000000
   0.000000000   0.000000000   0.994715538

ATOMIC_POSITIONS (alat)
Si       0.000000000   0.000000000   0.000000000    0   0   0
Si      -0.000000000   0.497357769   0.497357769    0   0   0
Si       0.497357769  -0.000000000   0.497357769    0   0   0
Si       0.497357769   0.497357769  -0.000000000    0   0   0
Si       0.248678885   0.248678885   0.248678885    0   0   0
Si       0.248678885   0.746036654   0.746036654    0   0   0
Si       0.746036654   0.248678885   0.746036654    0   0   0
Si       0.746036654   0.746036654   0.248678885    0   0   0
End final coordinates



     Writing output data file Si.Fd-3m.8-atom.vc-relax.save/
 
     init_run     :     13.08s CPU     13.18s WALL (       1 calls)
     electrons    :   5244.50s CPU   5279.98s WALL (      19 calls)
     update_pot   :    156.64s CPU    156.98s WALL (      18 calls)
     forces       :     89.64s CPU     90.87s WALL (      19 calls)
     stress       :    216.66s CPU    219.88s WALL (      19 calls)

     Called by init_run:
     wfcinit      :      3.42s CPU      3.43s WALL (       1 calls)
     potinit      :      5.46s CPU      5.50s WALL (       1 calls)
     hinit0       :      4.01s CPU      4.02s WALL (       1 calls)

     Called by electrons:
     c_bands      :   4245.09s CPU   4256.91s WALL (     185 calls)
     sum_band     :    204.74s CPU    219.03s WALL (     185 calls)
     v_of_rho     :     73.14s CPU     73.26s WALL (     185 calls)
     newd         :     22.60s CPU     31.70s WALL (     185 calls)
     PAW_pot      :    851.68s CPU    852.76s WALL (     203 calls)
     mix_rho      :      7.92s CPU      8.02s WALL (     185 calls)

     Called by c_bands:
     init_us_2    :     69.90s CPU     69.94s WALL (    4270 calls)
     ccgdiagg     :   3913.63s CPU   3922.33s WALL (    1850 calls)
     wfcrot       :    233.32s CPU    233.69s WALL (    1480 calls)

     Called by sum_band:
     sum_band:bec :      0.22s CPU      0.22s WALL (    2030 calls)
     addusdens    :     38.22s CPU     52.15s WALL (     185 calls)

     Called by *cgdiagg:
     h_psi        :   2107.18s CPU   2111.11s WALL (   86425 calls)
     s_psi        :   1199.74s CPU   1204.45s WALL (  171370 calls)
     cdiaghg      :      0.38s CPU      0.37s WALL (    1480 calls)

     Called by h_psi:
     h_psi:pot    :   2100.15s CPU   2103.91s WALL (   86425 calls)
     h_psi:calbec :    841.14s CPU    840.98s WALL (   86425 calls)
     vloc_psi     :    632.07s CPU    634.77s WALL (   86425 calls)
     add_vuspsi   :    625.84s CPU    627.39s WALL (   86425 calls)
     hs_1psi      :   2505.03s CPU   2511.01s WALL (   84945 calls)
     s_1psi       :   1306.41s CPU   1309.03s WALL (   84945 calls)

     General routines
     calbec       :   1610.79s CPU   1611.96s WALL (  174350 calls)
     fft          :      6.57s CPU      6.59s WALL (    2547 calls)
     ffts         :      0.47s CPU      0.48s WALL (     185 calls)
     fftw         :    611.62s CPU    612.46s WALL (  247170 calls)
 
     Parallel routines
 
     PWSCF        :      1h36m CPU      1h37m WALL

 
   This run was terminated on:  21:55:51   7Sep2019            

=------------------------------------------------------------------------------=
   JOB DONE.
=------------------------------------------------------------------------------=
