
     Program PWSCF v.6.0 (svn rev. 13079) starts on  2Aug2017 at 12:47:52 

     This program is part of the open-source Quantum ESPRESSO suite
     for quantum simulation of materials; please cite
         "P. Giannozzi et al., J. Phys.:Condens. Matter 21 395502 (2009);
          URL http://www.quantum-espresso.org", 
     in publications or presentations arising from this work. More details at
     http://www.quantum-espresso.org/quote

     Serial version
     Waiting for input...
     Reading input from standard input

     Current dimensions of program PWSCF are:
     Max number of different atomic species (ntypx) = 10
     Max number of k-points (npk) =  40000
     Max angular momentum in pseudopotentials (lmaxx) =  3
               file si_sp.pp.van.UPF: wavefunction(s)  0D renormalized
     Message from routine setup:
     no reason to have ecutrho>4*ecutwfc
 
     G-vector sticks info
     --------------------
     sticks:   dense  smooth     PW     G-vecs:    dense   smooth      PW
     Sum        1417     721    223                35749    12627    2229
 

     Title: 
     Diamond (Fd-3m) Si in TPSS                                                 


     bravais-lattice index     =            2
     lattice parameter (alat)  =      10.2041  a.u.
     unit-cell volume          =     265.6194 (a.u.)^3
     number of atoms/cell      =            2
     number of atomic types    =            1
     number of electrons       =         8.00
     number of Kohn-Sham states=            8
     kinetic-energy cutoff     =      50.0000  Ry
     charge density cutoff     =     400.0000  Ry
     convergence threshold     =      1.0E-10
     mixing beta               =       0.7000
     number of iterations used =            8  plain     mixing
     Exchange-correlation      =  SLA  PW   TPSS TPSS ( 1  4  0  0 0 1)
     nstep                     =           50


     celldm(1)=  10.204066  celldm(2)=   0.000000  celldm(3)=   0.000000
     celldm(4)=   0.000000  celldm(5)=   0.000000  celldm(6)=   0.000000

     crystal axes: (cart. coord. in units of alat)
               a(1) = (  -0.500000   0.000000   0.500000 )  
               a(2) = (   0.000000   0.500000   0.500000 )  
               a(3) = (  -0.500000   0.500000   0.000000 )  

     reciprocal axes: (cart. coord. in units 2 pi/alat)
               b(1) = ( -1.000000 -1.000000  1.000000 )  
               b(2) = (  1.000000  1.000000  1.000000 )  
               b(3) = ( -1.000000  1.000000 -1.000000 )  


     PseudoPot. # 1 for Si read from file:
     /Users/williamparker/src/MGGA/T1/Si_tpss/si_sp.pp.van.UPF
     MD5 check sum: 5972b84f3846f36c2cc41099f9489e4c
     Pseudo is Norm-conserving, Zval =  4.0
     Generated by new atomic code, or converted to UPF format
     Using radial grid of 1475 points,  2 beta functions with: 
                l(1) =   0
                l(2) =   1

     atomic species   valence    mass     pseudopotential
        Si             4.00    28.08600     Si( 1.00)

      cell mass =   0.00100 AMU/(a.u.)^2 

     24 Sym. Ops. (no inversion) found
          (note: 24 additional sym.ops. were found but ignored
           their fractional translations are incommensurate with FFT grid)

                                    s                        frac. trans.

      isym =  1     identity                                     

 cryst.   s( 1) = (     1          0          0      )
                  (     0          1          0      )
                  (     0          0          1      )

 cart.    s( 1) = (  1.0000000  0.0000000  0.0000000 )
                  (  0.0000000  1.0000000  0.0000000 )
                  (  0.0000000  0.0000000  1.0000000 )


      isym =  2     180 deg rotation - cart. axis [0,0,1]        

 cryst.   s( 2) = (     0          1         -1      )
                  (     1          0         -1      )
                  (     0          0         -1      )

 cart.    s( 2) = ( -1.0000000  0.0000000  0.0000000 )
                  (  0.0000000 -1.0000000  0.0000000 )
                  (  0.0000000  0.0000000  1.0000000 )


      isym =  3     180 deg rotation - cart. axis [0,1,0]        

 cryst.   s( 3) = (    -1          0          0      )
                  (    -1          0          1      )
                  (    -1          1          0      )

 cart.    s( 3) = ( -1.0000000  0.0000000  0.0000000 )
                  (  0.0000000  1.0000000  0.0000000 )
                  (  0.0000000  0.0000000 -1.0000000 )


      isym =  4     180 deg rotation - cart. axis [1,0,0]        

 cryst.   s( 4) = (     0         -1          1      )
                  (     0         -1          0      )
                  (     1         -1          0      )

 cart.    s( 4) = (  1.0000000  0.0000000  0.0000000 )
                  (  0.0000000 -1.0000000  0.0000000 )
                  (  0.0000000  0.0000000 -1.0000000 )


      isym =  5     120 deg rotation - cart. axis [-1,-1,-1]     

 cryst.   s( 5) = (    -1          0          1      )
                  (    -1          1          0      )
                  (    -1          0          0      )

 cart.    s( 5) = (  0.0000000  1.0000000  0.0000000 )
                  (  0.0000000  0.0000000  1.0000000 )
                  (  1.0000000  0.0000000  0.0000000 )


      isym =  6     120 deg rotation - cart. axis [-1,1,1]       

 cryst.   s( 6) = (     0          1          0      )
                  (     0          0          1      )
                  (     1          0          0      )

 cart.    s( 6) = (  0.0000000 -1.0000000  0.0000000 )
                  (  0.0000000  0.0000000  1.0000000 )
                  ( -1.0000000  0.0000000  0.0000000 )


      isym =  7     120 deg rotation - cart. axis [1,1,-1]       

 cryst.   s( 7) = (     1          0         -1      )
                  (     0          0         -1      )
                  (     0          1         -1      )

 cart.    s( 7) = (  0.0000000  1.0000000  0.0000000 )
                  (  0.0000000  0.0000000 -1.0000000 )
                  ( -1.0000000  0.0000000  0.0000000 )


      isym =  8     120 deg rotation - cart. axis [1,-1,1]       

 cryst.   s( 8) = (     0         -1          0      )
                  (     1         -1          0      )
                  (     0         -1          1      )

 cart.    s( 8) = (  0.0000000 -1.0000000  0.0000000 )
                  (  0.0000000  0.0000000 -1.0000000 )
                  (  1.0000000  0.0000000  0.0000000 )


      isym =  9     120 deg rotation - cart. axis [1,1,1]        

 cryst.   s( 9) = (     0          0         -1      )
                  (     0          1         -1      )
                  (     1          0         -1      )

 cart.    s( 9) = (  0.0000000  0.0000000  1.0000000 )
                  (  1.0000000  0.0000000  0.0000000 )
                  (  0.0000000  1.0000000  0.0000000 )


      isym = 10     120 deg rotation - cart. axis [-1,1,-1]      

 cryst.   s(10) = (    -1          1          0      )
                  (    -1          0          0      )
                  (    -1          0          1      )

 cart.    s(10) = (  0.0000000  0.0000000  1.0000000 )
                  ( -1.0000000  0.0000000  0.0000000 )
                  (  0.0000000 -1.0000000  0.0000000 )


      isym = 11     120 deg rotation - cart. axis [1,-1,-1]      

 cryst.   s(11) = (     0          0          1      )
                  (     1          0          0      )
                  (     0          1          0      )

 cart.    s(11) = (  0.0000000  0.0000000 -1.0000000 )
                  ( -1.0000000  0.0000000  0.0000000 )
                  (  0.0000000  1.0000000  0.0000000 )


      isym = 12     120 deg rotation - cart. axis [-1,-1,1]      

 cryst.   s(12) = (     1         -1          0      )
                  (     0         -1          1      )
                  (     0         -1          0      )

 cart.    s(12) = (  0.0000000  0.0000000 -1.0000000 )
                  (  1.0000000  0.0000000  0.0000000 )
                  (  0.0000000 -1.0000000  0.0000000 )


      isym = 13     inv. 180 deg rotation - cart. axis [1,1,0]   

 cryst.   s(13) = (     0          1          0      )
                  (     1          0          0      )
                  (     0          0          1      )

 cart.    s(13) = (  0.0000000 -1.0000000  0.0000000 )
                  ( -1.0000000  0.0000000  0.0000000 )
                  (  0.0000000  0.0000000  1.0000000 )


      isym = 14     inv. 180 deg rotation - cart. axis [1,-1,0]  

 cryst.   s(14) = (     1          0         -1      )
                  (     0          1         -1      )
                  (     0          0         -1      )

 cart.    s(14) = (  0.0000000  1.0000000  0.0000000 )
                  (  1.0000000  0.0000000  0.0000000 )
                  (  0.0000000  0.0000000  1.0000000 )


      isym = 15     inv.  90 deg rotation - cart. axis [0,0,-1]  

 cryst.   s(15) = (     0         -1          0      )
                  (     0         -1          1      )
                  (     1         -1          0      )

 cart.    s(15) = (  0.0000000 -1.0000000  0.0000000 )
                  (  1.0000000  0.0000000  0.0000000 )
                  (  0.0000000  0.0000000 -1.0000000 )


      isym = 16     inv.  90 deg rotation - cart. axis [0,0,1]   

 cryst.   s(16) = (    -1          0          1      )
                  (    -1          0          0      )
                  (    -1          1          0      )

 cart.    s(16) = (  0.0000000  1.0000000  0.0000000 )
                  ( -1.0000000  0.0000000  0.0000000 )
                  (  0.0000000  0.0000000 -1.0000000 )


      isym = 17     inv. 180 deg rotation - cart. axis [1,0,1]   

 cryst.   s(17) = (     1          0          0      )
                  (     0          0          1      )
                  (     0          1          0      )

 cart.    s(17) = (  0.0000000  0.0000000 -1.0000000 )
                  (  0.0000000  1.0000000  0.0000000 )
                  ( -1.0000000  0.0000000  0.0000000 )


      isym = 18     inv. 180 deg rotation - cart. axis [-1,0,1]  

 cryst.   s(18) = (    -1          0          0      )
                  (    -1          1          0      )
                  (    -1          0          1      )

 cart.    s(18) = (  0.0000000  0.0000000  1.0000000 )
                  (  0.0000000  1.0000000  0.0000000 )
                  (  1.0000000  0.0000000  0.0000000 )


      isym = 19     inv.  90 deg rotation - cart. axis [0,1,0]   

 cryst.   s(19) = (     0         -1          1      )
                  (     1         -1          0      )
                  (     0         -1          0      )

 cart.    s(19) = (  0.0000000  0.0000000 -1.0000000 )
                  (  0.0000000 -1.0000000  0.0000000 )
                  (  1.0000000  0.0000000  0.0000000 )


      isym = 20     inv.  90 deg rotation - cart. axis [0,-1,0]  

 cryst.   s(20) = (     0          1         -1      )
                  (     0          0         -1      )
                  (     1          0         -1      )

 cart.    s(20) = (  0.0000000  0.0000000  1.0000000 )
                  (  0.0000000 -1.0000000  0.0000000 )
                  ( -1.0000000  0.0000000  0.0000000 )


      isym = 21     inv. 180 deg rotation - cart. axis [0,1,1]   

 cryst.   s(21) = (     1         -1          0      )
                  (     0         -1          0      )
                  (     0         -1          1      )

 cart.    s(21) = (  1.0000000  0.0000000  0.0000000 )
                  (  0.0000000  0.0000000 -1.0000000 )
                  (  0.0000000 -1.0000000  0.0000000 )


      isym = 22     inv. 180 deg rotation - cart. axis [0,1,-1]  

 cryst.   s(22) = (     0          0          1      )
                  (     0          1          0      )
                  (     1          0          0      )

 cart.    s(22) = (  1.0000000  0.0000000  0.0000000 )
                  (  0.0000000  0.0000000  1.0000000 )
                  (  0.0000000  1.0000000  0.0000000 )


      isym = 23     inv.  90 deg rotation - cart. axis [-1,0,0]  

 cryst.   s(23) = (     0          0         -1      )
                  (     1          0         -1      )
                  (     0          1         -1      )

 cart.    s(23) = ( -1.0000000  0.0000000  0.0000000 )
                  (  0.0000000  0.0000000 -1.0000000 )
                  (  0.0000000  1.0000000  0.0000000 )


      isym = 24     inv.  90 deg rotation - cart. axis [1,0,0]   

 cryst.   s(24) = (    -1          1          0      )
                  (    -1          0          1      )
                  (    -1          0          0      )

 cart.    s(24) = ( -1.0000000  0.0000000  0.0000000 )
                  (  0.0000000  0.0000000  1.0000000 )
                  (  0.0000000 -1.0000000  0.0000000 )


     point group T_d (-43m) 
     there are  5 classes
     the character table:

       E     8C3   3C2   6S4   6s_d 
A_1    1.00  1.00  1.00  1.00  1.00
A_2    1.00  1.00  1.00 -1.00 -1.00
E      2.00 -1.00  2.00  0.00  0.00
T_1    3.00  0.00 -1.00  1.00 -1.00
T_2    3.00  0.00 -1.00 -1.00  1.00

     the symmetry operations in each class and the name of the first element:

     E        1
          identity                                               
     8C3      5    7    8    6   12    9   10   11
          120 deg rotation - cart. axis [-1,-1,-1]               
     3C2      2    3    4
          180 deg rotation - cart. axis [0,0,1]                  
     6S4     15   16   20   19   23   24
          inv.  90 deg rotation - cart. axis [0,0,-1]            
     6s_d    13   14   17   18   21   22
          inv. 180 deg rotation - cart. axis [1,1,0]             

   Cartesian axes

     site n.     atom                  positions (alat units)
         1           Si  tau(   1) = (   0.0000000   0.0000000   0.0000000  )
         2           Si  tau(   2) = (  -0.2500000   0.2500000   0.2500000  )

   Crystallographic axes

     site n.     atom                  positions (cryst. coord.)
         1           Si  tau(   1) = (  0.0000000  0.0000000  0.0000000  )
         2           Si  tau(   2) = (  0.2500000  0.2500000  0.2500000  )

     number of k points=   120  gaussian smearing, width (Ry)=  0.0010
                       cart. coord. in units 2pi/alat
        k(    1) = (   0.0000000   0.0000000   0.0000000), wk =   0.0005926
        k(    2) = (  -0.0666667   0.0666667  -0.0666667), wk =   0.0047407
        k(    3) = (  -0.1333333   0.1333333  -0.1333333), wk =   0.0047407
        k(    4) = (  -0.2000000   0.2000000  -0.2000000), wk =   0.0047407
        k(    5) = (  -0.2666667   0.2666667  -0.2666667), wk =   0.0047407
        k(    6) = (  -0.3333333   0.3333333  -0.3333333), wk =   0.0047407
        k(    7) = (  -0.4000000   0.4000000  -0.4000000), wk =   0.0047407
        k(    8) = (  -0.4666667   0.4666667  -0.4666667), wk =   0.0047407
        k(    9) = (   0.0000000   0.1333333   0.0000000), wk =   0.0035556
        k(   10) = (  -0.0666667   0.2000000  -0.0666667), wk =   0.0142222
        k(   11) = (  -0.1333333   0.2666667  -0.1333333), wk =   0.0142222
        k(   12) = (  -0.2000000   0.3333333  -0.2000000), wk =   0.0142222
        k(   13) = (  -0.2666667   0.4000000  -0.2666667), wk =   0.0142222
        k(   14) = (  -0.3333333   0.4666667  -0.3333333), wk =   0.0142222
        k(   15) = (  -0.4000000   0.5333333  -0.4000000), wk =   0.0142222
        k(   16) = (   0.5333333  -0.4000000   0.5333333), wk =   0.0142222
        k(   17) = (   0.4666667  -0.3333333   0.4666667), wk =   0.0142222
        k(   18) = (   0.4000000  -0.2666667   0.4000000), wk =   0.0142222
        k(   19) = (   0.3333333  -0.2000000   0.3333333), wk =   0.0142222
        k(   20) = (   0.2666667  -0.1333333   0.2666667), wk =   0.0142222
        k(   21) = (   0.2000000  -0.0666667   0.2000000), wk =   0.0142222
        k(   22) = (   0.1333333   0.0000000   0.1333333), wk =   0.0071111
        k(   23) = (   0.0000000   0.2666667   0.0000000), wk =   0.0035556
        k(   24) = (  -0.0666667   0.3333333  -0.0666667), wk =   0.0142222
        k(   25) = (  -0.1333333   0.4000000  -0.1333333), wk =   0.0142222
        k(   26) = (  -0.2000000   0.4666667  -0.2000000), wk =   0.0142222
        k(   27) = (  -0.2666667   0.5333333  -0.2666667), wk =   0.0142222
        k(   28) = (  -0.3333333   0.6000000  -0.3333333), wk =   0.0142222
        k(   29) = (   0.6000000  -0.3333333   0.6000000), wk =   0.0142222
        k(   30) = (   0.5333333  -0.2666667   0.5333333), wk =   0.0142222
        k(   31) = (   0.4666667  -0.2000000   0.4666667), wk =   0.0142222
        k(   32) = (   0.4000000  -0.1333333   0.4000000), wk =   0.0142222
        k(   33) = (   0.3333333  -0.0666667   0.3333333), wk =   0.0142222
        k(   34) = (   0.2666667   0.0000000   0.2666667), wk =   0.0071111
        k(   35) = (   0.0000000   0.4000000   0.0000000), wk =   0.0035556
        k(   36) = (  -0.0666667   0.4666667  -0.0666667), wk =   0.0142222
        k(   37) = (  -0.1333333   0.5333333  -0.1333333), wk =   0.0142222
        k(   38) = (  -0.2000000   0.6000000  -0.2000000), wk =   0.0142222
        k(   39) = (  -0.2666667   0.6666667  -0.2666667), wk =   0.0142222
        k(   40) = (   0.6666667  -0.2666667   0.6666667), wk =   0.0142222
        k(   41) = (   0.6000000  -0.2000000   0.6000000), wk =   0.0142222
        k(   42) = (   0.5333333  -0.1333333   0.5333333), wk =   0.0142222
        k(   43) = (   0.4666667  -0.0666667   0.4666667), wk =   0.0142222
        k(   44) = (   0.4000000   0.0000000   0.4000000), wk =   0.0071111
        k(   45) = (   0.0000000   0.5333333   0.0000000), wk =   0.0035556
        k(   46) = (  -0.0666667   0.6000000  -0.0666667), wk =   0.0142222
        k(   47) = (  -0.1333333   0.6666667  -0.1333333), wk =   0.0142222
        k(   48) = (  -0.2000000   0.7333333  -0.2000000), wk =   0.0142222
        k(   49) = (   0.7333333  -0.2000000   0.7333333), wk =   0.0142222
        k(   50) = (   0.6666667  -0.1333333   0.6666667), wk =   0.0142222
        k(   51) = (   0.6000000  -0.0666667   0.6000000), wk =   0.0142222
        k(   52) = (   0.5333333  -0.0000000   0.5333333), wk =   0.0071111
        k(   53) = (   0.0000000   0.6666667   0.0000000), wk =   0.0035556
        k(   54) = (  -0.0666667   0.7333333  -0.0666667), wk =   0.0142222
        k(   55) = (  -0.1333333   0.8000000  -0.1333333), wk =   0.0142222
        k(   56) = (   0.8000000  -0.1333333   0.8000000), wk =   0.0142222
        k(   57) = (   0.7333333  -0.0666667   0.7333333), wk =   0.0142222
        k(   58) = (   0.6666667  -0.0000000   0.6666667), wk =   0.0071111
        k(   59) = (   0.0000000   0.8000000   0.0000000), wk =   0.0035556
        k(   60) = (  -0.0666667   0.8666667  -0.0666667), wk =   0.0142222
        k(   61) = (   0.8666667  -0.0666667   0.8666667), wk =   0.0142222
        k(   62) = (   0.8000000   0.0000000   0.8000000), wk =   0.0071111
        k(   63) = (   0.0000000   0.9333333   0.0000000), wk =   0.0035556
        k(   64) = (   0.9333333   0.0000000   0.9333333), wk =   0.0071111
        k(   65) = (  -0.1333333   0.2666667   0.0000000), wk =   0.0142222
        k(   66) = (  -0.2000000   0.3333333  -0.0666667), wk =   0.0284444
        k(   67) = (  -0.2666667   0.4000000  -0.1333333), wk =   0.0284444
        k(   68) = (  -0.3333333   0.4666667  -0.2000000), wk =   0.0284444
        k(   69) = (  -0.4000000   0.5333333  -0.2666667), wk =   0.0284444
        k(   70) = (   0.5333333  -0.4000000   0.6666667), wk =   0.0284444
        k(   71) = (  -0.1333333   0.4000000   0.0000000), wk =   0.0142222
        k(   72) = (  -0.2000000   0.4666667  -0.0666667), wk =   0.0284444
        k(   73) = (  -0.2666667   0.5333333  -0.1333333), wk =   0.0284444
        k(   74) = (  -0.3333333   0.6000000  -0.2000000), wk =   0.0284444
        k(   75) = (   0.6000000  -0.3333333   0.7333333), wk =   0.0284444
        k(   76) = (   0.5333333  -0.2666667   0.6666667), wk =   0.0284444
        k(   77) = (   0.4666667  -0.2000000   0.6000000), wk =   0.0284444
        k(   78) = (   0.4000000  -0.1333333   0.5333333), wk =   0.0284444
        k(   79) = (   0.3333333  -0.0666667   0.4666667), wk =   0.0284444
        k(   80) = (   0.2666667   0.0000000   0.4000000), wk =   0.0142222
        k(   81) = (  -0.1333333   0.5333333   0.0000000), wk =   0.0142222
        k(   82) = (  -0.2000000   0.6000000  -0.0666667), wk =   0.0284444
        k(   83) = (  -0.2666667   0.6666667  -0.1333333), wk =   0.0284444
        k(   84) = (   0.6666667  -0.2666667   0.8000000), wk =   0.0284444
        k(   85) = (   0.6000000  -0.2000000   0.7333333), wk =   0.0284444
        k(   86) = (   0.5333333  -0.1333333   0.6666667), wk =   0.0284444
        k(   87) = (   0.4666667  -0.0666667   0.6000000), wk =   0.0284444
        k(   88) = (   0.4000000   0.0000000   0.5333333), wk =   0.0142222
        k(   89) = (  -0.1333333   0.6666667  -0.0000000), wk =   0.0142222
        k(   90) = (  -0.2000000   0.7333333  -0.0666667), wk =   0.0284444
        k(   91) = (   0.7333333  -0.2000000   0.8666667), wk =   0.0284444
        k(   92) = (   0.6666667  -0.1333333   0.8000000), wk =   0.0284444
        k(   93) = (   0.6000000  -0.0666667   0.7333333), wk =   0.0284444
        k(   94) = (   0.5333333  -0.0000000   0.6666667), wk =   0.0142222
        k(   95) = (  -0.1333333   0.8000000   0.0000000), wk =   0.0142222
        k(   96) = (   0.8000000  -0.1333333   0.9333333), wk =   0.0284444
        k(   97) = (   0.7333333  -0.0666667   0.8666667), wk =   0.0284444
        k(   98) = (   0.6666667   0.0000000   0.8000000), wk =   0.0142222
        k(   99) = (   0.8666667  -0.0666667   1.0000000), wk =   0.0142222
        k(  100) = (   0.8000000   0.0000000   0.9333333), wk =   0.0142222
        k(  101) = (  -0.2666667   0.5333333   0.0000000), wk =   0.0142222
        k(  102) = (  -0.3333333   0.6000000  -0.0666667), wk =   0.0284444
        k(  103) = (   0.6000000  -0.3333333   0.8666667), wk =   0.0284444
        k(  104) = (   0.5333333  -0.2666667   0.8000000), wk =   0.0284444
        k(  105) = (  -0.2666667   0.6666667   0.0000000), wk =   0.0142222
        k(  106) = (   0.6666667  -0.2666667   0.9333333), wk =   0.0284444
        k(  107) = (   0.6000000  -0.2000000   0.8666667), wk =   0.0284444
        k(  108) = (   0.5333333  -0.1333333   0.8000000), wk =   0.0284444
        k(  109) = (   0.4666667  -0.0666667   0.7333333), wk =   0.0284444
        k(  110) = (   0.4000000   0.0000000   0.6666667), wk =   0.0142222
        k(  111) = (   0.7333333  -0.2000000   1.0000000), wk =   0.0142222
        k(  112) = (   0.6666667  -0.1333333   0.9333333), wk =   0.0284444
        k(  113) = (   0.6000000  -0.0666667   0.8666667), wk =   0.0284444
        k(  114) = (   0.5333333   0.0000000   0.8000000), wk =   0.0142222
        k(  115) = (   0.7333333  -0.0666667   1.0000000), wk =   0.0142222
        k(  116) = (   0.6666667   0.0000000   0.9333333), wk =   0.0142222
        k(  117) = (   0.6000000  -0.2000000   1.0000000), wk =   0.0142222
        k(  118) = (   0.5333333  -0.1333333   0.9333333), wk =   0.0284444
        k(  119) = (   0.6000000  -0.0666667   1.0000000), wk =   0.0142222
        k(  120) = (   0.5333333  -0.0000000   0.9333333), wk =   0.0142222

                       cryst. coord.
        k(    1) = (   0.0000000   0.0000000   0.0000000), wk =   0.0005926
        k(    2) = (   0.0000000   0.0000000   0.0666667), wk =   0.0047407
        k(    3) = (   0.0000000   0.0000000   0.1333333), wk =   0.0047407
        k(    4) = (   0.0000000   0.0000000   0.2000000), wk =   0.0047407
        k(    5) = (   0.0000000   0.0000000   0.2666667), wk =   0.0047407
        k(    6) = (   0.0000000   0.0000000   0.3333333), wk =   0.0047407
        k(    7) = (   0.0000000   0.0000000   0.4000000), wk =   0.0047407
        k(    8) = (   0.0000000   0.0000000   0.4666667), wk =   0.0047407
        k(    9) = (   0.0000000   0.0666667   0.0666667), wk =   0.0035556
        k(   10) = (   0.0000000   0.0666667   0.1333333), wk =   0.0142222
        k(   11) = (   0.0000000   0.0666667   0.2000000), wk =   0.0142222
        k(   12) = (   0.0000000   0.0666667   0.2666667), wk =   0.0142222
        k(   13) = (   0.0000000   0.0666667   0.3333333), wk =   0.0142222
        k(   14) = (   0.0000000   0.0666667   0.4000000), wk =   0.0142222
        k(   15) = (   0.0000000   0.0666667   0.4666667), wk =   0.0142222
        k(   16) = (   0.0000000   0.0666667  -0.4666667), wk =   0.0142222
        k(   17) = (   0.0000000   0.0666667  -0.4000000), wk =   0.0142222
        k(   18) = (   0.0000000   0.0666667  -0.3333333), wk =   0.0142222
        k(   19) = (   0.0000000   0.0666667  -0.2666667), wk =   0.0142222
        k(   20) = (   0.0000000   0.0666667  -0.2000000), wk =   0.0142222
        k(   21) = (   0.0000000   0.0666667  -0.1333333), wk =   0.0142222
        k(   22) = (   0.0000000   0.0666667  -0.0666667), wk =   0.0071111
        k(   23) = (   0.0000000   0.1333333   0.1333333), wk =   0.0035556
        k(   24) = (   0.0000000   0.1333333   0.2000000), wk =   0.0142222
        k(   25) = (   0.0000000   0.1333333   0.2666667), wk =   0.0142222
        k(   26) = (   0.0000000   0.1333333   0.3333333), wk =   0.0142222
        k(   27) = (   0.0000000   0.1333333   0.4000000), wk =   0.0142222
        k(   28) = (   0.0000000   0.1333333   0.4666667), wk =   0.0142222
        k(   29) = (   0.0000000   0.1333333  -0.4666667), wk =   0.0142222
        k(   30) = (   0.0000000   0.1333333  -0.4000000), wk =   0.0142222
        k(   31) = (   0.0000000   0.1333333  -0.3333333), wk =   0.0142222
        k(   32) = (   0.0000000   0.1333333  -0.2666667), wk =   0.0142222
        k(   33) = (   0.0000000   0.1333333  -0.2000000), wk =   0.0142222
        k(   34) = (   0.0000000   0.1333333  -0.1333333), wk =   0.0071111
        k(   35) = (   0.0000000   0.2000000   0.2000000), wk =   0.0035556
        k(   36) = (   0.0000000   0.2000000   0.2666667), wk =   0.0142222
        k(   37) = (   0.0000000   0.2000000   0.3333333), wk =   0.0142222
        k(   38) = (   0.0000000   0.2000000   0.4000000), wk =   0.0142222
        k(   39) = (   0.0000000   0.2000000   0.4666667), wk =   0.0142222
        k(   40) = (   0.0000000   0.2000000  -0.4666667), wk =   0.0142222
        k(   41) = (   0.0000000   0.2000000  -0.4000000), wk =   0.0142222
        k(   42) = (   0.0000000   0.2000000  -0.3333333), wk =   0.0142222
        k(   43) = (   0.0000000   0.2000000  -0.2666667), wk =   0.0142222
        k(   44) = (   0.0000000   0.2000000  -0.2000000), wk =   0.0071111
        k(   45) = (   0.0000000   0.2666667   0.2666667), wk =   0.0035556
        k(   46) = (   0.0000000   0.2666667   0.3333333), wk =   0.0142222
        k(   47) = (   0.0000000   0.2666667   0.4000000), wk =   0.0142222
        k(   48) = (   0.0000000   0.2666667   0.4666667), wk =   0.0142222
        k(   49) = (   0.0000000   0.2666667  -0.4666667), wk =   0.0142222
        k(   50) = (   0.0000000   0.2666667  -0.4000000), wk =   0.0142222
        k(   51) = (   0.0000000   0.2666667  -0.3333333), wk =   0.0142222
        k(   52) = (   0.0000000   0.2666667  -0.2666667), wk =   0.0071111
        k(   53) = (   0.0000000   0.3333333   0.3333333), wk =   0.0035556
        k(   54) = (   0.0000000   0.3333333   0.4000000), wk =   0.0142222
        k(   55) = (   0.0000000   0.3333333   0.4666667), wk =   0.0142222
        k(   56) = (   0.0000000   0.3333333  -0.4666667), wk =   0.0142222
        k(   57) = (   0.0000000   0.3333333  -0.4000000), wk =   0.0142222
        k(   58) = (   0.0000000   0.3333333  -0.3333333), wk =   0.0071111
        k(   59) = (   0.0000000   0.4000000   0.4000000), wk =   0.0035556
        k(   60) = (   0.0000000   0.4000000   0.4666667), wk =   0.0142222
        k(   61) = (   0.0000000   0.4000000  -0.4666667), wk =   0.0142222
        k(   62) = (   0.0000000   0.4000000  -0.4000000), wk =   0.0071111
        k(   63) = (   0.0000000   0.4666667   0.4666667), wk =   0.0035556
        k(   64) = (   0.0000000   0.4666667  -0.4666667), wk =   0.0071111
        k(   65) = (   0.0666667   0.1333333   0.2000000), wk =   0.0142222
        k(   66) = (   0.0666667   0.1333333   0.2666667), wk =   0.0284444
        k(   67) = (   0.0666667   0.1333333   0.3333333), wk =   0.0284444
        k(   68) = (   0.0666667   0.1333333   0.4000000), wk =   0.0284444
        k(   69) = (   0.0666667   0.1333333   0.4666667), wk =   0.0284444
        k(   70) = (   0.0666667   0.1333333  -0.4666667), wk =   0.0284444
        k(   71) = (   0.0666667   0.2000000   0.2666667), wk =   0.0142222
        k(   72) = (   0.0666667   0.2000000   0.3333333), wk =   0.0284444
        k(   73) = (   0.0666667   0.2000000   0.4000000), wk =   0.0284444
        k(   74) = (   0.0666667   0.2000000   0.4666667), wk =   0.0284444
        k(   75) = (   0.0666667   0.2000000  -0.4666667), wk =   0.0284444
        k(   76) = (   0.0666667   0.2000000  -0.4000000), wk =   0.0284444
        k(   77) = (   0.0666667   0.2000000  -0.3333333), wk =   0.0284444
        k(   78) = (   0.0666667   0.2000000  -0.2666667), wk =   0.0284444
        k(   79) = (   0.0666667   0.2000000  -0.2000000), wk =   0.0284444
        k(   80) = (   0.0666667   0.2000000  -0.1333333), wk =   0.0142222
        k(   81) = (   0.0666667   0.2666667   0.3333333), wk =   0.0142222
        k(   82) = (   0.0666667   0.2666667   0.4000000), wk =   0.0284444
        k(   83) = (   0.0666667   0.2666667   0.4666667), wk =   0.0284444
        k(   84) = (   0.0666667   0.2666667  -0.4666667), wk =   0.0284444
        k(   85) = (   0.0666667   0.2666667  -0.4000000), wk =   0.0284444
        k(   86) = (   0.0666667   0.2666667  -0.3333333), wk =   0.0284444
        k(   87) = (   0.0666667   0.2666667  -0.2666667), wk =   0.0284444
        k(   88) = (   0.0666667   0.2666667  -0.2000000), wk =   0.0142222
        k(   89) = (   0.0666667   0.3333333   0.4000000), wk =   0.0142222
        k(   90) = (   0.0666667   0.3333333   0.4666667), wk =   0.0284444
        k(   91) = (   0.0666667   0.3333333  -0.4666667), wk =   0.0284444
        k(   92) = (   0.0666667   0.3333333  -0.4000000), wk =   0.0284444
        k(   93) = (   0.0666667   0.3333333  -0.3333333), wk =   0.0284444
        k(   94) = (   0.0666667   0.3333333  -0.2666667), wk =   0.0142222
        k(   95) = (   0.0666667   0.4000000   0.4666667), wk =   0.0142222
        k(   96) = (   0.0666667   0.4000000  -0.4666667), wk =   0.0284444
        k(   97) = (   0.0666667   0.4000000  -0.4000000), wk =   0.0284444
        k(   98) = (   0.0666667   0.4000000  -0.3333333), wk =   0.0142222
        k(   99) = (   0.0666667   0.4666667  -0.4666667), wk =   0.0142222
        k(  100) = (   0.0666667   0.4666667  -0.4000000), wk =   0.0142222
        k(  101) = (   0.1333333   0.2666667   0.4000000), wk =   0.0142222
        k(  102) = (   0.1333333   0.2666667   0.4666667), wk =   0.0284444
        k(  103) = (   0.1333333   0.2666667  -0.4666667), wk =   0.0284444
        k(  104) = (   0.1333333   0.2666667  -0.4000000), wk =   0.0284444
        k(  105) = (   0.1333333   0.3333333   0.4666667), wk =   0.0142222
        k(  106) = (   0.1333333   0.3333333  -0.4666667), wk =   0.0284444
        k(  107) = (   0.1333333   0.3333333  -0.4000000), wk =   0.0284444
        k(  108) = (   0.1333333   0.3333333  -0.3333333), wk =   0.0284444
        k(  109) = (   0.1333333   0.3333333  -0.2666667), wk =   0.0284444
        k(  110) = (   0.1333333   0.3333333  -0.2000000), wk =   0.0142222
        k(  111) = (   0.1333333   0.4000000  -0.4666667), wk =   0.0142222
        k(  112) = (   0.1333333   0.4000000  -0.4000000), wk =   0.0284444
        k(  113) = (   0.1333333   0.4000000  -0.3333333), wk =   0.0284444
        k(  114) = (   0.1333333   0.4000000  -0.2666667), wk =   0.0142222
        k(  115) = (   0.1333333   0.4666667  -0.4000000), wk =   0.0142222
        k(  116) = (   0.1333333   0.4666667  -0.3333333), wk =   0.0142222
        k(  117) = (   0.2000000   0.4000000  -0.4000000), wk =   0.0142222
        k(  118) = (   0.2000000   0.4000000  -0.3333333), wk =   0.0284444
        k(  119) = (   0.2000000   0.4666667  -0.3333333), wk =   0.0142222
        k(  120) = (   0.2000000   0.4666667  -0.2666667), wk =   0.0142222

     Dense  grid:    35749 G-vectors     FFT dimensions: (  45,  45,  45)

     Smooth grid:    12627 G-vectors     FFT dimensions: (  36,  36,  36)

     Estimated max dynamical RAM per process >      59.21Mb

     Initial potential from superposition of free atoms

     starting charge    7.99883, renormalised to    8.00000
     Starting wfc are   18 randomized atomic wfcs

     total cpu time spent up to now is        7.8 secs

     Self-consistent Calculation

     iteration #  1     ecut=    50.00 Ry     beta=0.70
     Davidson diagonalization with overlap
     ethr =  1.00E-02,  avg # of iterations =  2.2

     Threshold (ethr) on eigenvalues was too large:
     Diagonalizing with lowered threshold

     Davidson diagonalization with overlap
     ethr =  4.27E-04,  avg # of iterations =  1.9

     total cpu time spent up to now is       25.6 secs

     total energy              =     -11.00338069 Ry
     Harris-Foulkes estimate   =     -11.02129919 Ry
     estimated scf accuracy    <       0.03478535 Ry

     iteration #  2     ecut=    50.00 Ry     beta=0.70
     Davidson diagonalization with overlap
     ethr =  4.35E-04,  avg # of iterations =  1.0

     total cpu time spent up to now is       33.4 secs

     total energy              =     -11.00448815 Ry
     Harris-Foulkes estimate   =     -11.00520365 Ry
     estimated scf accuracy    <       0.00222912 Ry

     iteration #  3     ecut=    50.00 Ry     beta=0.70
     Davidson diagonalization with overlap
     ethr =  2.79E-05,  avg # of iterations =  2.0

     total cpu time spent up to now is       41.6 secs

     total energy              =     -11.00468834 Ry
     Harris-Foulkes estimate   =     -11.00471908 Ry
     estimated scf accuracy    <       0.00005719 Ry

     iteration #  4     ecut=    50.00 Ry     beta=0.70
     Davidson diagonalization with overlap
     ethr =  7.15E-07,  avg # of iterations =  2.8

     total cpu time spent up to now is       51.8 secs

     total energy              =     -11.00470550 Ry
     Harris-Foulkes estimate   =     -11.00470716 Ry
     estimated scf accuracy    <       0.00000379 Ry

     iteration #  5     ecut=    50.00 Ry     beta=0.70
     Davidson diagonalization with overlap
     ethr =  4.74E-08,  avg # of iterations =  1.6

     total cpu time spent up to now is       59.8 secs

     total energy              =     -11.00470592 Ry
     Harris-Foulkes estimate   =     -11.00470593 Ry
     estimated scf accuracy    <       0.00000002 Ry

     iteration #  6     ecut=    50.00 Ry     beta=0.70
     Davidson diagonalization with overlap
     ethr =  2.01E-10,  avg # of iterations =  2.3

     total cpu time spent up to now is       69.1 secs

     total energy              =     -11.00470593 Ry
     Harris-Foulkes estimate   =     -11.00470593 Ry
     estimated scf accuracy    <          3.7E-10 Ry

     iteration #  7     ecut=    50.00 Ry     beta=0.70
     Davidson diagonalization with overlap
     ethr =  4.60E-12,  avg # of iterations =  2.0

     total cpu time spent up to now is       78.1 secs

     End of self-consistent calculation

          k = 0.0000 0.0000 0.0000 (  1591 PWs)   bands (ev):

     4.2530  16.7317  16.7317  16.7317  18.6071  18.6071  18.6071  19.9497

     occupation numbers 
     1.0000   0.0000   0.0000   0.0000   0.0000   0.0000   0.0000   0.0000

          k =-0.0667 0.0667-0.0667 (  1570 PWs)   bands (ev):

     4.3148  16.0257  16.6012  16.6012  18.7206  18.7857  18.7857  20.3595

     occupation numbers 
     1.0000   1.0000   0.0000   0.0000   0.0000   0.0000   0.0000   0.0000

          k =-0.1333 0.1333-0.1333 (  1576 PWs)   bands (ev):

     4.4995  14.7413  16.3223  16.3223  18.5771  19.1686  19.1686  21.3258

     occupation numbers 
     1.0000   1.0000   0.0492   0.0492   0.0000   0.0000   0.0000   0.0000

          k =-0.2000 0.2000-0.2000 (  1576 PWs)   bands (ev):

     4.8042  13.3897  16.0307  16.0307  18.3081  19.4859  19.4859  22.3532

     occupation numbers 
     1.0000   1.0000   1.0000   1.0000   0.0000   0.0000   0.0000   0.0000

          k =-0.2667 0.2667-0.2667 (  1582 PWs)   bands (ev):

     5.2228  12.0896  15.7824  15.7824  18.0525  19.5407  19.5407  23.0476

     occupation numbers 
     1.0000   1.0000   1.0000   1.0000   0.0000   0.0000   0.0000   0.0000

          k =-0.3333 0.3333-0.3333 (  1591 PWs)   bands (ev):

     5.7408  10.8932  15.5952  15.5952  17.8515  19.3917  19.3917  22.7682

     occupation numbers 
     1.0000   1.0000   1.0000   1.0000   0.0000   0.0000   0.0000   0.0000

          k =-0.4000 0.4000-0.4000 (  1586 PWs)   bands (ev):

     6.3172   9.8580  15.4721  15.4721  17.7164  19.2118  19.2118  22.4772

     occupation numbers 
     1.0000   1.0000   1.0000   1.0000   0.0000   0.0000   0.0000   0.0000

          k =-0.4667 0.4667-0.4667 (  1580 PWs)   bands (ev):

     6.8039   9.1402  15.4115  15.4115  17.6491  19.1026  19.1026  22.3176

     occupation numbers 
     1.0000   1.0000   1.0000   1.0000   0.0000   0.0000   0.0000   0.0000

          k = 0.0000 0.1333 0.0000 (  1579 PWs)   bands (ev):

     4.3355  16.2627  16.3194  16.3194  18.3330  19.1154  19.1154  20.3851

     occupation numbers 
     1.0000   1.0000   0.0885   0.0885   0.0000   0.0000   0.0000   0.0000

          k =-0.0667 0.2000-0.0667 (  1570 PWs)   bands (ev):

     4.4793  15.1648  15.9781  16.2503  18.3311  19.2703  19.5788  20.9814

     occupation numbers 
     1.0000   1.0000   1.0000   1.0000   0.0000   0.0000   0.0000   0.0000

          k =-0.1333 0.2667-0.1333 (  1568 PWs)   bands (ev):

     4.7442  13.8485  15.6698  15.9882  18.5137  19.2124  19.9704  21.2794

     occupation numbers 
     1.0000   1.0000   1.0000   1.0000   0.0000   0.0000   0.0000   0.0000

          k =-0.2000 0.3333-0.2000 (  1581 PWs)   bands (ev):

     5.1256  12.5400  15.4308  15.6791  18.4584  19.2407  20.0892  21.4593

     occupation numbers 
     1.0000   1.0000   1.0000   1.0000   0.0000   0.0000   0.0000   0.0000

          k =-0.2667 0.4000-0.2667 (  1590 PWs)   bands (ev):

     5.6127  11.3124  15.2739  15.3934  18.2872  19.1593  19.9327  22.0450

     occupation numbers 
     1.0000   1.0000   1.0000   1.0000   0.0000   0.0000   0.0000   0.0000

          k =-0.3333 0.4667-0.3333 (  1591 PWs)   bands (ev):

     6.1775  10.2188  15.1535  15.2019  18.1402  19.0298  19.6759  22.6408

     occupation numbers 
     1.0000   1.0000   1.0000   1.0000   0.0000   0.0000   0.0000   0.0000

          k =-0.4000 0.5333-0.4000 (  1578 PWs)   bands (ev):

     6.7254   9.3656  14.9688  15.2119  18.0553  18.9638  19.4473  22.7071

     occupation numbers 
     1.0000   1.0000   1.0000   1.0000   0.0000   0.0000   0.0000   0.0000

          k = 0.5333-0.4000 0.5333 (  1576 PWs)   bands (ev):

     6.9327   9.0818  14.8468  15.2976  18.0407  19.0038  19.3052  22.7019

     occupation numbers 
     1.0000   1.0000   1.0000   1.0000   0.0000   0.0000   0.0000   0.0000

          k = 0.4667-0.3333 0.4667 (  1580 PWs)   bands (ev):

     6.5569   9.6111  14.7958  15.4507  18.0940  19.1573  19.2677  22.7840

     occupation numbers 
     1.0000   1.0000   1.0000   1.0000   0.0000   0.0000   0.0000   0.0000

          k = 0.4000-0.2667 0.4000 (  1590 PWs)   bands (ev):

     5.9835  10.5656  14.8237  15.6619  18.2110  19.3193  19.4023  22.8591

     occupation numbers 
     1.0000   1.0000   1.0000   1.0000   0.0000   0.0000   0.0000   0.0000

          k = 0.3333-0.2000 0.3333 (  1584 PWs)   bands (ev):

     5.4394  11.7110  14.9370  15.9204  18.3883  19.3885  19.6630  22.5959

     occupation numbers 
     1.0000   1.0000   1.0000   1.0000   0.0000   0.0000   0.0000   0.0000

          k = 0.2667-0.1333 0.2667 (  1574 PWs)   bands (ev):

     4.9858  12.9697  15.1401  16.2096  18.6164  19.3226  19.7535  22.1539

     occupation numbers 
     1.0000   1.0000   1.0000   1.0000   0.0000   0.0000   0.0000   0.0000

          k = 0.2000-0.0667 0.2000 (  1567 PWs)   bands (ev):

     4.6425  14.2808  15.4388  16.4910  18.8608  19.0439  19.4801  21.6062

     occupation numbers 
     1.0000   1.0000   1.0000   0.0000   0.0000   0.0000   0.0000   0.0000

          k = 0.1333 0.0000 0.1333 (  1562 PWs)   bands (ev):

     4.4176  15.4564  15.9067  16.6679  18.7700  18.9414  19.0717  20.9143

     occupation numbers 
     1.0000   1.0000   1.0000   0.0000   0.0000   0.0000   0.0000   0.0000

          k = 0.0000 0.2667 0.0000 (  1575 PWs)   bands (ev):

     4.5822  15.2760  15.6031  15.6031  17.7432  20.1137  20.1137  20.5650

     occupation numbers 
     1.0000   1.0000   1.0000   1.0000   0.0000   0.0000   0.0000   0.0000

          k =-0.0667 0.3333-0.0667 (  1577 PWs)   bands (ev):

     4.8068  14.2447  15.2737  15.4143  17.7177  20.0591  20.4561  20.6076

     occupation numbers 
     1.0000   1.0000   1.0000   1.0000   0.0000   0.0000   0.0000   0.0000

          k =-0.1333 0.4000-0.1333 (  1577 PWs)   bands (ev):

     5.1496  13.0063  15.0223  15.0875  17.9464  19.9729  20.2793  20.8545

     occupation numbers 
     1.0000   1.0000   1.0000   1.0000   0.0000   0.0000   0.0000   0.0000

          k =-0.2000 0.4667-0.2000 (  1584 PWs)   bands (ev):

     5.6025  11.7881  14.7194  14.8621  17.9945  20.0261  20.4647  20.7665

     occupation numbers 
     1.0000   1.0000   1.0000   1.0000   0.0000   0.0000   0.0000   0.0000

          k =-0.2667 0.5333-0.2667 (  1586 PWs)   bands (ev):

     6.1458  10.6659  14.3797  14.7975  17.9197  19.8233  20.4975  21.3591

     occupation numbers 
     1.0000   1.0000   1.0000   1.0000   0.0000   0.0000   0.0000   0.0000

          k =-0.3333 0.6000-0.3333 (  1589 PWs)   bands (ev):

     6.7190   9.7243  14.0945  14.8281  17.8884  19.6728  20.2078  22.4362

     occupation numbers 
     1.0000   1.0000   1.0000   1.0000   0.0000   0.0000   0.0000   0.0000

          k = 0.6000-0.3333 0.6000 (  1579 PWs)   bands (ev):

     7.0944   9.2015  13.8796  14.9497  17.9596  19.5896  19.9752  23.3595

     occupation numbers 
     1.0000   1.0000   1.0000   1.0000   0.0000   0.0000   0.0000   0.0000

          k = 0.5333-0.2667 0.5333 (  1584 PWs)   bands (ev):

     6.8836   9.4893  13.7471  15.1545  18.1390  19.5834  19.8290  23.5681

     occupation numbers 
     1.0000   1.0000   1.0000   1.0000   0.0000   0.0000   0.0000   0.0000

          k = 0.4667-0.2000 0.4667 (  1580 PWs)   bands (ev):

     6.3350  10.3371  13.7082  15.4299  18.4072  19.6611  19.7649  23.1154

     occupation numbers 
     1.0000   1.0000   1.0000   1.0000   0.0000   0.0000   0.0000   0.0000

          k = 0.4000-0.1333 0.4000 (  1580 PWs)   bands (ev):

     5.7716  11.4113  13.7745  15.7559  18.7257  19.7279  19.8036  22.2790

     occupation numbers 
     1.0000   1.0000   1.0000   1.0000   0.0000   0.0000   0.0000   0.0000

          k = 0.3333-0.0667 0.3333 (  1578 PWs)   bands (ev):

     5.2862  12.5846  13.9719  16.0974  19.0439  19.5763  19.8600  21.6190

     occupation numbers 
     1.0000   1.0000   1.0000   1.0000   0.0000   0.0000   0.0000   0.0000

          k = 0.2667 0.0000 0.2667 (  1572 PWs)   bands (ev):

     4.9063  13.6602  14.4406  16.3851  19.2581  19.2644  19.5508  21.5186

     occupation numbers 
     1.0000   1.0000   1.0000   0.0000   0.0000   0.0000   0.0000   0.0000

          k = 0.0000 0.4000 0.0000 (  1571 PWs)   bands (ev):

     4.9911  14.1314  14.9216  14.9216  17.1202  19.3944  21.2486  21.2486

     occupation numbers 
     1.0000   1.0000   1.0000   1.0000   0.0000   0.0000   0.0000   0.0000

          k =-0.0667 0.4667-0.0667 (  1582 PWs)   bands (ev):

     5.2945  13.2689  14.5694  14.6482  17.1300  18.9302  21.4962  21.6937

     occupation numbers 
     1.0000   1.0000   1.0000   1.0000   0.0000   0.0000   0.0000   0.0000

          k =-0.1333 0.5333-0.1333 (  1592 PWs)   bands (ev):

     5.7110  12.1973  14.0982  14.4685  17.3242  19.0141  21.3839  21.7584

     occupation numbers 
     1.0000   1.0000   1.0000   1.0000   0.0000   0.0000   0.0000   0.0000

          k =-0.2000 0.6000-0.2000 (  1598 PWs)   bands (ev):

     6.2265  11.1218  13.6358  14.3890  17.3316  19.7181  21.2111  21.5362

     occupation numbers 
     1.0000   1.0000   1.0000   1.0000   0.0000   0.0000   0.0000   0.0000

          k =-0.2667 0.6667-0.2667 (  1595 PWs)   bands (ev):

     6.8014  10.1524  13.2388  14.4109  17.3236  20.5865  21.2289  21.2346

     occupation numbers 
     1.0000   1.0000   1.0000   1.0000   0.0000   0.0000   0.0000   0.0000

          k = 0.6667-0.2667 0.6667 (  1579 PWs)   bands (ev):

     7.2880   9.4671  12.9282  14.5320  17.4136  20.7187  20.9469  22.2114

     occupation numbers 
     1.0000   1.0000   1.0000   1.0000   0.0000   0.0000   0.0000   0.0000

          k = 0.6000-0.2000 0.6000 (  1572 PWs)   bands (ev):

     7.2775   9.4862  12.7179  14.7464  17.6248  20.6589  20.7319  23.5093

     occupation numbers 
     1.0000   1.0000   1.0000   1.0000   0.0000   0.0000   0.0000   0.0000

          k = 0.5333-0.1333 0.5333 (  1584 PWs)   bands (ev):

     6.7844  10.1921  12.6232  15.0431  17.9510  20.5827  20.6334  23.1715

     occupation numbers 
     1.0000   1.0000   1.0000   1.0000   0.0000   0.0000   0.0000   0.0000

          k = 0.4667-0.0667 0.4667 (  1574 PWs)   bands (ev):

     6.2116  11.1500  12.6790  15.4013  18.3673  20.4256  20.6231  22.1325

     occupation numbers 
     1.0000   1.0000   1.0000   1.0000   0.0000   0.0000   0.0000   0.0000

          k = 0.4000 0.0000 0.4000 (  1580 PWs)   bands (ev):

     5.6994  12.0579  13.0398  15.7806  18.8103  20.0680  20.3907  21.6796

     occupation numbers 
     1.0000   1.0000   1.0000   1.0000   0.0000   0.0000   0.0000   0.0000

          k = 0.0000 0.5333 0.0000 (  1596 PWs)   bands (ev):

     5.5587  12.9208  14.3492  14.3492  16.5886  18.1927  22.4321  22.4321

     occupation numbers 
     1.0000   1.0000   1.0000   1.0000   0.0000   0.0000   0.0000   0.0000

          k =-0.0667 0.6000-0.0667 (  1587 PWs)   bands (ev):

     5.9376  12.1867  13.8933  14.1435  16.6495  17.8913  22.6980  22.7927

     occupation numbers 
     1.0000   1.0000   1.0000   1.0000   0.0000   0.0000   0.0000   0.0000

          k =-0.1333 0.6667-0.1333 (  1590 PWs)   bands (ev):

     6.4211  11.3360  13.2408  14.0392  16.7890  18.2828  22.5983  22.7064

     occupation numbers 
     1.0000   1.0000   1.0000   1.0000   0.0000   0.0000   0.0000   0.0000

          k =-0.2000 0.7333-0.2000 (  1593 PWs)   bands (ev):

     6.9827  10.4755  12.6493  14.0390  16.8087  19.2339  22.4185  22.4228

     occupation numbers 
     1.0000   1.0000   1.0000   1.0000   0.0000   0.0000   0.0000   0.0000

          k = 0.7333-0.2000 0.7333 (  1595 PWs)   bands (ev):

     7.5293   9.7505  12.1901  14.1422  16.8973  20.4049  22.1173  22.2799

     occupation numbers 
     1.0000   1.0000   1.0000   1.0000   0.0000   0.0000   0.0000   0.0000

          k = 0.6667-0.1333 0.6667 (  1583 PWs)   bands (ev):

     7.7136   9.5385  11.8798  14.3447  17.1059  21.4650  21.8528  22.4268

     occupation numbers 
     1.0000   1.0000   1.0000   1.0000   0.0000   0.0000   0.0000   0.0000

          k = 0.6000-0.0667 0.6000 (  1579 PWs)   bands (ev):

     7.3097  10.0539  11.7490  14.6372  17.4364  21.6138  21.7102  23.1102

     occupation numbers 
     1.0000   1.0000   1.0000   1.0000   0.0000   0.0000   0.0000   0.0000

          k = 0.5333-0.0000 0.5333 (  1582 PWs)   bands (ev):

     6.7415  10.7407  11.9353  15.0019  17.8726  21.1931  21.4722  22.3244

     occupation numbers 
     1.0000   1.0000   1.0000   1.0000   0.0000   0.0000   0.0000   0.0000

          k = 0.0000 0.6667 0.0000 (  1580 PWs)   bands (ev):

     6.2791  11.6778  13.9092  13.9092  16.2005  17.2386  23.6383  23.6383

     occupation numbers 
     1.0000   1.0000   1.0000   1.0000   1.0000   0.0000   0.0000   0.0000

          k =-0.0667 0.7333-0.0667 (  1593 PWs)   bands (ev):

     6.7284  11.0193  13.4258  13.7759  16.3093  17.1378  23.9122  23.9179

     occupation numbers 
     1.0000   1.0000   1.0000   1.0000   0.3813   0.0000   0.0000   0.0000

          k =-0.1333 0.8000-0.1333 (  1598 PWs)   bands (ev):

     7.2675  10.3494  12.6681  13.7477  16.4052  17.8274  23.7328  23.8241

     occupation numbers 
     1.0000   1.0000   1.0000   1.0000   0.0000   0.0000   0.0000   0.0000

          k = 0.8000-0.1333 0.8000 (  1595 PWs)   bands (ev):

     7.8376   9.7362  11.9795  13.8250  16.4880  18.9540  23.4303  23.6407

     occupation numbers 
     1.0000   1.0000   1.0000   1.0000   0.0000   0.0000   0.0000   0.0000

          k = 0.7333-0.0667 0.7333 (  1587 PWs)   bands (ev):

     8.1659   9.4280  11.4993  14.0051  16.6825  20.2574  23.1131  23.4708

     occupation numbers 
     1.0000   1.0000   1.0000   1.0000   0.0000   0.0000   0.0000   0.0000

          k = 0.6667-0.0000 0.6667 (  1578 PWs)   bands (ev):

     7.8520   9.7376  11.3528  14.2808  17.0021  21.5732  22.6181  23.3029

     occupation numbers 
     1.0000   1.0000   1.0000   1.0000   0.0000   0.0000   0.0000   0.0000

          k = 0.0000 0.8000 0.0000 (  1604 PWs)   bands (ev):

     7.1438  10.4393  13.6120  13.6120  15.9832  16.5605  24.8668  24.8668

     occupation numbers 
     1.0000   1.0000   1.0000   1.0000   1.0000   0.0000   0.0000   0.0000

          k =-0.0667 0.8667-0.0667 (  1594 PWs)   bands (ev):

     7.6554   9.8367  13.1536  13.5530  16.1187  16.6772  25.0731  25.1559

     occupation numbers 
     1.0000   1.0000   1.0000   1.0000   1.0000   0.0000   0.0000   0.0000

          k = 0.8667-0.0667 0.8667 (  1596 PWs)   bands (ev):

     8.2260   9.2911  12.3990  13.6006  16.2071  17.6101  24.8302  25.0658

     occupation numbers 
     1.0000   1.0000   1.0000   1.0000   1.0000   0.0000   0.0000   0.0000

          k = 0.8000 0.0000 0.8000 (  1596 PWs)   bands (ev):

     8.5469   9.0628  11.7544  13.7531  16.3809  18.8622  24.3030  24.9445

     occupation numbers 
     1.0000   1.0000   1.0000   1.0000   0.0000   0.0000   0.0000   0.0000

          k = 0.0000 0.9333 0.0000 (  1596 PWs)   bands (ev):

     8.1397   9.2475  13.4623  13.4623  15.9570  16.1418  26.0989  26.0989

     occupation numbers 
     1.0000   1.0000   1.0000   1.0000   1.0000   1.0000   0.0000   0.0000

          k = 0.9333 0.0000 0.9333 (  1588 PWs)   bands (ev):

     8.6782   8.7236  13.0641  13.4783  16.0619  16.5183  26.0550  26.2456

     occupation numbers 
     1.0000   1.0000   1.0000   1.0000   1.0000   0.0000   0.0000   0.0000

          k =-0.1333 0.2667 0.0000 (  1566 PWs)   bands (ev):

     4.6634  14.5390  15.1814  16.1889  18.2853  19.6208  19.9042  20.9633

     occupation numbers 
     1.0000   1.0000   1.0000   1.0000   0.0000   0.0000   0.0000   0.0000

          k =-0.2000 0.3333-0.0667 (  1575 PWs)   bands (ev):

     4.9673  13.4106  14.7018  15.9794  18.5126  19.5690  20.2837  20.7565

     occupation numbers 
     1.0000   1.0000   1.0000   1.0000   0.0000   0.0000   0.0000   0.0000

          k =-0.2667 0.4000-0.1333 (  1588 PWs)   bands (ev):

     5.3848  12.1705  14.4381  15.6763  18.6026  19.4225  20.3715  20.9891

     occupation numbers 
     1.0000   1.0000   1.0000   1.0000   0.0000   0.0000   0.0000   0.0000

          k =-0.3333 0.4667-0.2000 (  1585 PWs)   bands (ev):

     5.9017  11.0000  14.2793  15.3822  18.5340  19.1810  20.2469  21.7319

     occupation numbers 
     1.0000   1.0000   1.0000   1.0000   0.0000   0.0000   0.0000   0.0000

          k =-0.4000 0.5333-0.2667 (  1591 PWs)   bands (ev):

     6.4774   9.9774  14.1987  15.1493  18.4673  18.9406  20.0907  22.6736

     occupation numbers 
     1.0000   1.0000   1.0000   1.0000   0.0000   0.0000   0.0000   0.0000

          k = 0.5333-0.4000 0.6667 (  1576 PWs)   bands (ev):

     6.9650   9.2638  14.1705  15.0176  18.4508  18.7829  19.9985  23.2419

     occupation numbers 
     1.0000   1.0000   1.0000   1.0000   0.0000   0.0000   0.0000   0.0000

          k =-0.1333 0.4000 0.0000 (  1582 PWs)   bands (ev):

     5.0707  13.6071  14.4917  15.3452  17.6874  19.6554  20.6285  21.0922

     occupation numbers 
     1.0000   1.0000   1.0000   1.0000   0.0000   0.0000   0.0000   0.0000

          k =-0.2000 0.4667-0.0667 (  1576 PWs)   bands (ev):

     5.4503  12.5868  14.0111  15.0936  17.9361  19.5730  20.4569  21.4140

     occupation numbers 
     1.0000   1.0000   1.0000   1.0000   0.0000   0.0000   0.0000   0.0000

          k =-0.2667 0.5333-0.1333 (  1587 PWs)   bands (ev):

     5.9353  11.4645  13.7328  14.7974  18.0149  19.9804  20.3059  21.4121

     occupation numbers 
     1.0000   1.0000   1.0000   1.0000   0.0000   0.0000   0.0000   0.0000

          k =-0.3333 0.6000-0.2000 (  1589 PWs)   bands (ev):

     6.4983  10.4202  13.5280  14.5838  18.0010  19.7978  21.1444  21.2897

     occupation numbers 
     1.0000   1.0000   1.0000   1.0000   0.0000   0.0000   0.0000   0.0000

          k = 0.6000-0.3333 0.7333 (  1576 PWs)   bands (ev):

     7.0466   9.5893  13.3557  14.5121  18.0508  19.5382  21.1266  22.3450

     occupation numbers 
     1.0000   1.0000   1.0000   1.0000   0.0000   0.0000   0.0000   0.0000

          k = 0.5333-0.2667 0.6667 (  1579 PWs)   bands (ev):

     7.2531   9.3136  13.2189  14.5903  18.2064  19.3414  21.0421  23.5851

     occupation numbers 
     1.0000   1.0000   1.0000   1.0000   0.0000   0.0000   0.0000   0.0000

          k = 0.4667-0.2000 0.6000 (  1585 PWs)   bands (ev):

     6.8724   9.8410  13.1442  14.7954  18.4690  19.2259  21.0174  22.6613

     occupation numbers 
     1.0000   1.0000   1.0000   1.0000   0.0000   0.0000   0.0000   0.0000

          k = 0.4000-0.1333 0.5333 (  1584 PWs)   bands (ev):

     6.2997  10.7680  13.1607  15.0958  18.8200  19.1816  21.0273  21.5615

     occupation numbers 
     1.0000   1.0000   1.0000   1.0000   0.0000   0.0000   0.0000   0.0000

          k = 0.3333-0.0667 0.4667 (  1581 PWs)   bands (ev):

     5.7586  11.8354  13.3094  15.4508  19.1091  19.2325  20.6883  21.0223

     occupation numbers 
     1.0000   1.0000   1.0000   1.0000   0.0000   0.0000   0.0000   0.0000

          k = 0.2667 0.0000 0.4000 (  1577 PWs)   bands (ev):

     5.3081  12.8208  13.7412  15.7909  18.8431  19.5574  20.4386  20.7103

     occupation numbers 
     1.0000   1.0000   1.0000   1.0000   0.0000   0.0000   0.0000   0.0000

          k =-0.1333 0.5333 0.0000 (  1587 PWs)   bands (ev):

     5.6354  12.6266  13.9173  14.5138  17.1689  18.5266  21.6227  22.3340

     occupation numbers 
     1.0000   1.0000   1.0000   1.0000   0.0000   0.0000   0.0000   0.0000

          k =-0.2000 0.6000-0.0667 (  1587 PWs)   bands (ev):

     6.0855  11.7601  13.3917  14.2406  17.4165  18.6800  21.3907  22.6295

     occupation numbers 
     1.0000   1.0000   1.0000   1.0000   0.0000   0.0000   0.0000   0.0000

          k =-0.2667 0.6667-0.1333 (  1593 PWs)   bands (ev):

     6.6260  10.8159  12.9717  14.0511  17.4671  19.4770  21.0935  22.5858

     occupation numbers 
     1.0000   1.0000   1.0000   1.0000   0.0000   0.0000   0.0000   0.0000

          k = 0.6667-0.2667 0.8000 (  1580 PWs)   bands (ev):

     7.1982   9.9623  12.6201  14.0155  17.5232  20.3780  21.0187  22.4552

     occupation numbers 
     1.0000   1.0000   1.0000   1.0000   0.0000   0.0000   0.0000   0.0000

          k = 0.6000-0.2000 0.7333 (  1582 PWs)   bands (ev):

     7.5712   9.4789  12.3505  14.1236  17.6807  20.3878  21.9290  22.4499

     occupation numbers 
     1.0000   1.0000   1.0000   1.0000   0.0000   0.0000   0.0000   0.0000

          k = 0.5333-0.1333 0.6667 (  1581 PWs)   bands (ev):

     7.3442   9.7790  12.1891  14.3532  17.9521  20.2311  22.1290  22.6287

     occupation numbers 
     1.0000   1.0000   1.0000   1.0000   0.0000   0.0000   0.0000   0.0000

          k = 0.4667-0.0667 0.6000 (  1589 PWs)   bands (ev):

     6.7938  10.5598  12.1806  14.6802  18.3276  20.0963  21.4987  22.0445

     occupation numbers 
     1.0000   1.0000   1.0000   1.0000   0.0000   0.0000   0.0000   0.0000

          k = 0.4000 0.0000 0.5333 (  1584 PWs)   bands (ev):

     6.2368  11.3569  12.4752  15.0696  18.7781  19.7793  20.7673  21.7160

     occupation numbers 
     1.0000   1.0000   1.0000   1.0000   0.0000   0.0000   0.0000   0.0000

          k =-0.1333 0.6667-0.0000 (  1584 PWs)   bands (ev):

     6.3512  11.5545  13.4846  13.8486  16.7828  17.6415  22.6672  23.5926

     occupation numbers 
     1.0000   1.0000   1.0000   1.0000   0.0000   0.0000   0.0000   0.0000

          k =-0.2000 0.7333-0.0667 (  1601 PWs)   bands (ev):

     6.8630  10.8454  12.8663  13.6358  17.0139  18.0753  22.3829  23.8808

     occupation numbers 
     1.0000   1.0000   1.0000   1.0000   0.0000   0.0000   0.0000   0.0000

          k = 0.7333-0.2000 0.8667 (  1589 PWs)   bands (ev):

     7.4353  10.1305  12.2536  13.6068  17.0844  19.1026  22.0670  23.8129

     occupation numbers 
     1.0000   1.0000   1.0000   1.0000   0.0000   0.0000   0.0000   0.0000

          k = 0.6667-0.1333 0.8000 (  1592 PWs)   bands (ev):

     7.9170   9.5878  11.7909  13.7169  17.2308  20.3220  21.8187  23.6571

     occupation numbers 
     1.0000   1.0000   1.0000   1.0000   0.0000   0.0000   0.0000   0.0000

          k = 0.6000-0.0667 0.7333 (  1587 PWs)   bands (ev):

     7.8598   9.6699  11.5328  13.9461  17.4920  21.2184  22.0182  22.8216

     occupation numbers 
     1.0000   1.0000   1.0000   1.0000   0.0000   0.0000   0.0000   0.0000

          k = 0.5333-0.0000 0.6667 (  1581 PWs)   bands (ev):

     7.3516  10.1952  11.5943  14.2766  17.8646  21.0022  21.7375  22.8074

     occupation numbers 
     1.0000   1.0000   1.0000   1.0000   0.0000   0.0000   0.0000   0.0000

          k =-0.1333 0.8000 0.0000 (  1597 PWs)   bands (ev):

     7.2080  10.4137  13.2065  13.3979  16.5563  17.0266  23.7608  24.8607

     occupation numbers 
     1.0000   1.0000   1.0000   1.0000   0.0000   0.0000   0.0000   0.0000

          k = 0.8000-0.1333 0.9333 (  1592 PWs)   bands (ev):

     7.7658   9.8255  12.5201  13.3087  16.7604  17.7317  23.4592  25.1354

     occupation numbers 
     1.0000   1.0000   1.0000   1.0000   0.0000   0.0000   0.0000   0.0000

          k = 0.7333-0.0667 0.8667 (  1594 PWs)   bands (ev):

     8.3032   9.3373  11.8436  13.4063  16.8911  18.9190  23.1504  24.3746

     occupation numbers 
     1.0000   1.0000   1.0000   1.0000   0.0000   0.0000   0.0000   0.0000

          k = 0.6667 0.0000 0.8000 (  1593 PWs)   bands (ev):

     8.3288   9.3554  11.4378  13.6233  17.1333  20.2591  22.7629  23.1035

     occupation numbers 
     1.0000   1.0000   1.0000   1.0000   0.0000   0.0000   0.0000   0.0000

          k = 0.8667-0.0667 1.0000 (  1592 PWs)   bands (ev):

     8.1900   9.2721  13.0925  13.1519  16.5086  16.6580  24.9223  25.9671

     occupation numbers 
     1.0000   1.0000   1.0000   1.0000   0.0000   0.0000   0.0000   0.0000

          k = 0.8000 0.0000 0.9333 (  1596 PWs)   bands (ev):

     8.6943   8.8479  12.4032  13.2064  16.6741  17.6206  24.5557  24.7102

     occupation numbers 
     1.0000   1.0000   1.0000   1.0000   0.0000   0.0000   0.0000   0.0000

          k =-0.2667 0.5333 0.0000 (  1581 PWs)   bands (ev):

     5.8636  12.0175  13.1671  14.8136  18.3616  19.4019  20.2328  22.0695

     occupation numbers 
     1.0000   1.0000   1.0000   1.0000   0.0000   0.0000   0.0000   0.0000

          k =-0.3333 0.6000-0.0667 (  1585 PWs)   bands (ev):

     6.3757  11.1556  12.7579  14.4440  18.6268  19.6034  20.1621  22.3797

     occupation numbers 
     1.0000   1.0000   1.0000   1.0000   0.0000   0.0000   0.0000   0.0000

          k = 0.6000-0.3333 0.8667 (  1585 PWs)   bands (ev):

     6.9484  10.2428  12.6025  14.1341  18.6806  19.3886  21.0629  22.4151

     occupation numbers 
     1.0000   1.0000   1.0000   1.0000   0.0000   0.0000   0.0000   0.0000

          k = 0.5333-0.2667 0.8000 (  1576 PWs)   bands (ev):

     7.4398   9.5627  12.5515  13.9590  18.7418  19.1603  22.2147  22.4634

     occupation numbers 
     1.0000   1.0000   1.0000   1.0000   0.0000   0.0000   0.0000   0.0000

          k =-0.2667 0.6667 0.0000 (  1595 PWs)   bands (ev):

     6.5640  11.1995  12.7483  13.8402  17.9914  18.6391  21.0598  23.4528

     occupation numbers 
     1.0000   1.0000   1.0000   1.0000   0.0000   0.0000   0.0000   0.0000

          k = 0.6667-0.2667 0.9333 (  1595 PWs)   bands (ev):

     7.1211  10.4892  12.3258  13.5030  18.2380  19.3496  20.7297  23.7816

     occupation numbers 
     1.0000   1.0000   1.0000   1.0000   0.0000   0.0000   0.0000   0.0000

          k = 0.6000-0.2000 0.8667 (  1592 PWs)   bands (ev):

     7.6703   9.8067  12.0545  13.3560  18.3525  20.0666  20.8741  23.7580

     occupation numbers 
     1.0000   1.0000   1.0000   1.0000   0.0000   0.0000   0.0000   0.0000

          k = 0.5333-0.1333 0.8000 (  1579 PWs)   bands (ev):

     7.8728   9.5740  11.8832  13.4161  18.5511  19.9628  21.9282  22.5686

     occupation numbers 
     1.0000   1.0000   1.0000   1.0000   0.0000   0.0000   0.0000   0.0000

          k = 0.4667-0.0667 0.7333 (  1581 PWs)   bands (ev):

     7.4742  10.0526  11.8484  13.6506  18.8425  19.7926  21.0695  23.3856

     occupation numbers 
     1.0000   1.0000   1.0000   1.0000   0.0000   0.0000   0.0000   0.0000

          k = 0.4000 0.0000 0.6667 (  1585 PWs)   bands (ev):

     6.9058  10.7060  12.0825  14.0145  19.1990  19.4406  20.2365  23.2169

     occupation numbers 
     1.0000   1.0000   1.0000   1.0000   0.0000   0.0000   0.0000   0.0000

          k = 0.7333-0.2000 1.0000 (  1594 PWs)   bands (ev):

     7.3942  10.3014  12.5037  13.0867  17.7641  18.1169  22.0206  24.8329

     occupation numbers 
     1.0000   1.0000   1.0000   1.0000   0.0000   0.0000   0.0000   0.0000

          k = 0.6667-0.1333 0.9333 (  1591 PWs)   bands (ev):

     7.9631   9.7478  12.0214  12.8908  17.9960  19.0861  21.6833  24.0417

     occupation numbers 
     1.0000   1.0000   1.0000   1.0000   0.0000   0.0000   0.0000   0.0000

          k = 0.6000-0.0667 0.8667 (  1595 PWs)   bands (ev):

     8.3207   9.4197  11.6184  12.9850  18.1854  20.2986  21.4758  22.5885

     occupation numbers 
     1.0000   1.0000   1.0000   1.0000   0.0000   0.0000   0.0000   0.0000

          k = 0.5333 0.0000 0.8000 (  1587 PWs)   bands (ev):

     8.0178   9.7061  11.5045  13.2522  18.4750  20.7202  21.3452  22.1704

     occupation numbers 
     1.0000   1.0000   1.0000   1.0000   0.0000   0.0000   0.0000   0.0000

          k = 0.7333-0.0667 1.0000 (  1596 PWs)   bands (ev):

     8.3284   9.3213  12.4546  12.6334  17.6987  17.8107  23.1085  24.3111

     occupation numbers 
     1.0000   1.0000   1.0000   1.0000   0.0000   0.0000   0.0000   0.0000

          k = 0.6667 0.0000 0.9333 (  1603 PWs)   bands (ev):

     8.7156   9.0328  11.9034  12.6936  17.9142  18.9963  22.7482  22.8552

     occupation numbers 
     1.0000   1.0000   1.0000   1.0000   0.0000   0.0000   0.0000   0.0000

          k = 0.6000-0.2000 1.0000 (  1586 PWs)   bands (ev):

     7.6801  10.0524  11.8923  13.0241  19.2212  19.3584  20.4533  23.7649

     occupation numbers 
     1.0000   1.0000   1.0000   1.0000   0.0000   0.0000   0.0000   0.0000

          k = 0.5333-0.1333 0.9333 (  1591 PWs)   bands (ev):

     8.1855   9.5802  11.7151  12.7524  19.3308  19.8680  20.8679  22.3164

     occupation numbers 
     1.0000   1.0000   1.0000   1.0000   0.0000   0.0000   0.0000   0.0000

          k = 0.6000-0.0667 1.0000 (  1594 PWs)   bands (ev):

     8.5117   9.3251  11.9480  12.3118  19.1413  19.2043  21.3617  22.5057

     occupation numbers 
     1.0000   1.0000   1.0000   1.0000   0.0000   0.0000   0.0000   0.0000

          k = 0.5333-0.0000 0.9333 (  1591 PWs)   bands (ev):

     8.6628   9.2197  11.7370  12.3401  19.3532  20.2430  21.1598  21.3180

     occupation numbers 
     1.0000   1.0000   1.0000   1.0000   0.0000   0.0000   0.0000   0.0000

     the Fermi energy is    16.3064 ev

!    total energy              =              NaN Ry
     Harris-Foulkes estimate   =     -11.00470593 Ry
     estimated scf accuracy    <          3.4E-12 Ry

     convergence has been achieved in   7 iterations
     Warning: cannot save meta-gga kinetic terms: not implemented.

     Forces acting on atoms (Ry/au):

     atom    1 type  1   force =    -0.00000000    0.00000000   -0.00000000
     atom    2 type  1   force =     0.00000000   -0.00000000    0.00000000
     The non-local contrib.  to forces
     atom    1 type  1   force =     0.00000000    0.00000000    0.00000000
     atom    2 type  1   force =     0.00000000    0.00000000    0.00000000
     The ionic contribution  to forces
     atom    1 type  1   force =    -0.00000000    0.00000000    0.00000000
     atom    2 type  1   force =     0.00000000   -0.00000000   -0.00000000
     The local contribution  to forces
     atom    1 type  1   force =    -0.00000000    0.00000000    0.00000000
     atom    2 type  1   force =    -0.00000000    0.00000000   -0.00000000
     The core correction contribution to forces
     atom    1 type  1   force =     0.00000000    0.00000000    0.00000000
     atom    2 type  1   force =     0.00000000    0.00000000    0.00000000
     The Hubbard contrib.    to forces
     atom    1 type  1   force =     0.00000000    0.00000000    0.00000000
     atom    2 type  1   force =     0.00000000    0.00000000    0.00000000
     The SCF correction term to forces
     atom    1 type  1   force =    -0.00000000   -0.00000000   -0.00000000
     atom    2 type  1   force =    -0.00000000    0.00000000   -0.00000000

     Total force =     0.000000     Total SCF correction =     0.000000


     entering subroutine stress ...

     Message from routine stress:
     Meta-GGA and stress not implemented

     Wentzcovitch Damped Cell Dynamics Minimization:
     convergence thresholds EPSE = 7.35E-05  EPSF = 1.00E-03

     Entering Dynamics;  it =     1   time =  0.00000 pico-seconds

  new lattice vectors (alat unit) :
  -0.500000000   0.000000000   0.500000000
   0.000000000   0.500000000   0.500000000
  -0.500000000   0.500000000   0.000000000
  new unit-cell volume =    265.6194 (a.u.)^3
  new positions in cryst coord
Si      -0.000000000  -0.000000000   0.000000000
Si       0.250000000   0.250000000   0.250000000
  new positions in cart coord (alat unit)
Si      -0.000000000   0.000000000  -0.000000000
Si      -0.250000000   0.250000000   0.250000000

     Ekin =     0.00000000 Ry    T =    0.0 K  Etot =            NaN
     new unit-cell volume =    265.61940 a.u.^3 (    39.36073 Ang^3 )

CELL_PARAMETERS (alat= 10.20406600)
  -0.500000000   0.000000000   0.500000000
   0.000000000   0.500000000   0.500000000
  -0.500000000   0.500000000   0.000000000

ATOMIC_POSITIONS (crystal)
Si      -0.000000000  -0.000000000   0.000000000
Si       0.250000000   0.250000000   0.250000000



     Writing output data file Si.fd-3m.save
     NEW-OLD atomic charge density approx. for the potential

     total cpu time spent up to now is       79.7 secs

     Self-consistent Calculation

     iteration #  1     ecut=    50.00 Ry     beta=0.70
     Davidson diagonalization with overlap
     ethr =  1.00E-06,  avg # of iterations =  1.0

     Threshold (ethr) on eigenvalues was too large:
     Diagonalizing with lowered threshold

     Davidson diagonalization with overlap
     ethr =  2.51E-14,  avg # of iterations =  1.3

     total cpu time spent up to now is       96.3 secs

     End of self-consistent calculation

          k = 0.0000 0.0000 0.0000 (  1591 PWs)   bands (ev):

     4.2530  16.7317  16.7317  16.7317  18.6071  18.6071  18.6071  19.9497

     occupation numbers 
     1.0000   0.0000   0.0000   0.0000   0.0000   0.0000   0.0000   0.0000

          k =-0.0667 0.0667-0.0667 (  1570 PWs)   bands (ev):

     4.3148  16.0257  16.6012  16.6012  18.7206  18.7857  18.7857  20.3595

     occupation numbers 
     1.0000   1.0000   0.0000   0.0000   0.0000   0.0000   0.0000   0.0000

          k =-0.1333 0.1333-0.1333 (  1576 PWs)   bands (ev):

     4.4995  14.7413  16.3223  16.3223  18.5771  19.1686  19.1686  21.3258

     occupation numbers 
     1.0000   1.0000   0.0492   0.0492   0.0000   0.0000   0.0000   0.0000

          k =-0.2000 0.2000-0.2000 (  1576 PWs)   bands (ev):

     4.8042  13.3897  16.0307  16.0307  18.3081  19.4859  19.4859  22.3532

     occupation numbers 
     1.0000   1.0000   1.0000   1.0000   0.0000   0.0000   0.0000   0.0000

          k =-0.2667 0.2667-0.2667 (  1582 PWs)   bands (ev):

     5.2228  12.0896  15.7824  15.7824  18.0525  19.5407  19.5407  23.0476

     occupation numbers 
     1.0000   1.0000   1.0000   1.0000   0.0000   0.0000   0.0000   0.0000

          k =-0.3333 0.3333-0.3333 (  1591 PWs)   bands (ev):

     5.7408  10.8932  15.5952  15.5952  17.8515  19.3917  19.3917  22.7682

     occupation numbers 
     1.0000   1.0000   1.0000   1.0000   0.0000   0.0000   0.0000   0.0000

          k =-0.4000 0.4000-0.4000 (  1586 PWs)   bands (ev):

     6.3172   9.8580  15.4721  15.4721  17.7164  19.2118  19.2118  22.4772

     occupation numbers 
     1.0000   1.0000   1.0000   1.0000   0.0000   0.0000   0.0000   0.0000

          k =-0.4667 0.4667-0.4667 (  1580 PWs)   bands (ev):

     6.8039   9.1402  15.4115  15.4115  17.6491  19.1026  19.1026  22.3176

     occupation numbers 
     1.0000   1.0000   1.0000   1.0000   0.0000   0.0000   0.0000   0.0000

          k = 0.0000 0.1333 0.0000 (  1579 PWs)   bands (ev):

     4.3355  16.2627  16.3194  16.3194  18.3330  19.1154  19.1154  20.3851

     occupation numbers 
     1.0000   1.0000   0.0885   0.0885   0.0000   0.0000   0.0000   0.0000

          k =-0.0667 0.2000-0.0667 (  1570 PWs)   bands (ev):

     4.4793  15.1648  15.9781  16.2503  18.3311  19.2703  19.5788  20.9814

     occupation numbers 
     1.0000   1.0000   1.0000   1.0000   0.0000   0.0000   0.0000   0.0000

          k =-0.1333 0.2667-0.1333 (  1568 PWs)   bands (ev):

     4.7442  13.8485  15.6698  15.9882  18.5137  19.2124  19.9704  21.2794

     occupation numbers 
     1.0000   1.0000   1.0000   1.0000   0.0000   0.0000   0.0000   0.0000

          k =-0.2000 0.3333-0.2000 (  1581 PWs)   bands (ev):

     5.1256  12.5400  15.4308  15.6791  18.4584  19.2407  20.0892  21.4593

     occupation numbers 
     1.0000   1.0000   1.0000   1.0000   0.0000   0.0000   0.0000   0.0000

          k =-0.2667 0.4000-0.2667 (  1590 PWs)   bands (ev):

     5.6127  11.3124  15.2739  15.3934  18.2872  19.1593  19.9327  22.0450

     occupation numbers 
     1.0000   1.0000   1.0000   1.0000   0.0000   0.0000   0.0000   0.0000

          k =-0.3333 0.4667-0.3333 (  1591 PWs)   bands (ev):

     6.1775  10.2188  15.1535  15.2019  18.1402  19.0298  19.6759  22.6408

     occupation numbers 
     1.0000   1.0000   1.0000   1.0000   0.0000   0.0000   0.0000   0.0000

          k =-0.4000 0.5333-0.4000 (  1578 PWs)   bands (ev):

     6.7254   9.3656  14.9688  15.2119  18.0553  18.9638  19.4473  22.7071

     occupation numbers 
     1.0000   1.0000   1.0000   1.0000   0.0000   0.0000   0.0000   0.0000

          k = 0.5333-0.4000 0.5333 (  1576 PWs)   bands (ev):

     6.9327   9.0818  14.8468  15.2976  18.0407  19.0038  19.3052  22.7019

     occupation numbers 
     1.0000   1.0000   1.0000   1.0000   0.0000   0.0000   0.0000   0.0000

          k = 0.4667-0.3333 0.4667 (  1580 PWs)   bands (ev):

     6.5569   9.6111  14.7958  15.4507  18.0940  19.1573  19.2677  22.7840

     occupation numbers 
     1.0000   1.0000   1.0000   1.0000   0.0000   0.0000   0.0000   0.0000

          k = 0.4000-0.2667 0.4000 (  1590 PWs)   bands (ev):

     5.9835  10.5656  14.8237  15.6619  18.2110  19.3193  19.4023  22.8591

     occupation numbers 
     1.0000   1.0000   1.0000   1.0000   0.0000   0.0000   0.0000   0.0000

          k = 0.3333-0.2000 0.3333 (  1584 PWs)   bands (ev):

     5.4394  11.7110  14.9370  15.9204  18.3883  19.3885  19.6630  22.5959

     occupation numbers 
     1.0000   1.0000   1.0000   1.0000   0.0000   0.0000   0.0000   0.0000

          k = 0.2667-0.1333 0.2667 (  1574 PWs)   bands (ev):

     4.9858  12.9697  15.1401  16.2096  18.6164  19.3226  19.7535  22.1538

     occupation numbers 
     1.0000   1.0000   1.0000   1.0000   0.0000   0.0000   0.0000   0.0000

          k = 0.2000-0.0667 0.2000 (  1567 PWs)   bands (ev):

     4.6425  14.2808  15.4388  16.4910  18.8608  19.0439  19.4801  21.6061

     occupation numbers 
     1.0000   1.0000   1.0000   0.0000   0.0000   0.0000   0.0000   0.0000

          k = 0.1333 0.0000 0.1333 (  1562 PWs)   bands (ev):

     4.4176  15.4564  15.9067  16.6679  18.7700  18.9414  19.0717  20.9143

     occupation numbers 
     1.0000   1.0000   1.0000   0.0000   0.0000   0.0000   0.0000   0.0000

          k = 0.0000 0.2667 0.0000 (  1575 PWs)   bands (ev):

     4.5822  15.2760  15.6031  15.6031  17.7432  20.1137  20.1137  20.5650

     occupation numbers 
     1.0000   1.0000   1.0000   1.0000   0.0000   0.0000   0.0000   0.0000

          k =-0.0667 0.3333-0.0667 (  1577 PWs)   bands (ev):

     4.8068  14.2447  15.2737  15.4143  17.7177  20.0591  20.4561  20.6076

     occupation numbers 
     1.0000   1.0000   1.0000   1.0000   0.0000   0.0000   0.0000   0.0000

          k =-0.1333 0.4000-0.1333 (  1577 PWs)   bands (ev):

     5.1496  13.0063  15.0223  15.0875  17.9464  19.9729  20.2793  20.8545

     occupation numbers 
     1.0000   1.0000   1.0000   1.0000   0.0000   0.0000   0.0000   0.0000

          k =-0.2000 0.4667-0.2000 (  1584 PWs)   bands (ev):

     5.6025  11.7881  14.7194  14.8621  17.9945  20.0261  20.4647  20.7665

     occupation numbers 
     1.0000   1.0000   1.0000   1.0000   0.0000   0.0000   0.0000   0.0000

          k =-0.2667 0.5333-0.2667 (  1586 PWs)   bands (ev):

     6.1458  10.6659  14.3797  14.7975  17.9197  19.8233  20.4975  21.3591

     occupation numbers 
     1.0000   1.0000   1.0000   1.0000   0.0000   0.0000   0.0000   0.0000

          k =-0.3333 0.6000-0.3333 (  1589 PWs)   bands (ev):

     6.7190   9.7243  14.0945  14.8281  17.8884  19.6728  20.2078  22.4362

     occupation numbers 
     1.0000   1.0000   1.0000   1.0000   0.0000   0.0000   0.0000   0.0000

          k = 0.6000-0.3333 0.6000 (  1579 PWs)   bands (ev):

     7.0944   9.2015  13.8796  14.9497  17.9596  19.5896  19.9752  23.3595

     occupation numbers 
     1.0000   1.0000   1.0000   1.0000   0.0000   0.0000   0.0000   0.0000

          k = 0.5333-0.2667 0.5333 (  1584 PWs)   bands (ev):

     6.8836   9.4893  13.7471  15.1545  18.1390  19.5834  19.8290  23.5681

     occupation numbers 
     1.0000   1.0000   1.0000   1.0000   0.0000   0.0000   0.0000   0.0000

          k = 0.4667-0.2000 0.4667 (  1580 PWs)   bands (ev):

     6.3350  10.3371  13.7082  15.4299  18.4072  19.6611  19.7649  23.1154

     occupation numbers 
     1.0000   1.0000   1.0000   1.0000   0.0000   0.0000   0.0000   0.0000

          k = 0.4000-0.1333 0.4000 (  1580 PWs)   bands (ev):

     5.7716  11.4113  13.7745  15.7559  18.7257  19.7279  19.8036  22.2790

     occupation numbers 
     1.0000   1.0000   1.0000   1.0000   0.0000   0.0000   0.0000   0.0000

          k = 0.3333-0.0667 0.3333 (  1578 PWs)   bands (ev):

     5.2862  12.5846  13.9719  16.0974  19.0439  19.5763  19.8600  21.6190

     occupation numbers 
     1.0000   1.0000   1.0000   1.0000   0.0000   0.0000   0.0000   0.0000

          k = 0.2667 0.0000 0.2667 (  1572 PWs)   bands (ev):

     4.9063  13.6602  14.4406  16.3851  19.2581  19.2644  19.5508  21.5186

     occupation numbers 
     1.0000   1.0000   1.0000   0.0000   0.0000   0.0000   0.0000   0.0000

          k = 0.0000 0.4000 0.0000 (  1571 PWs)   bands (ev):

     4.9911  14.1314  14.9216  14.9216  17.1202  19.3944  21.2486  21.2486

     occupation numbers 
     1.0000   1.0000   1.0000   1.0000   0.0000   0.0000   0.0000   0.0000

          k =-0.0667 0.4667-0.0667 (  1582 PWs)   bands (ev):

     5.2945  13.2689  14.5695  14.6482  17.1300  18.9302  21.4962  21.6937

     occupation numbers 
     1.0000   1.0000   1.0000   1.0000   0.0000   0.0000   0.0000   0.0000

          k =-0.1333 0.5333-0.1333 (  1592 PWs)   bands (ev):

     5.7110  12.1973  14.0982  14.4685  17.3242  19.0141  21.3839  21.7584

     occupation numbers 
     1.0000   1.0000   1.0000   1.0000   0.0000   0.0000   0.0000   0.0000

          k =-0.2000 0.6000-0.2000 (  1598 PWs)   bands (ev):

     6.2265  11.1218  13.6358  14.3890  17.3316  19.7181  21.2111  21.5362

     occupation numbers 
     1.0000   1.0000   1.0000   1.0000   0.0000   0.0000   0.0000   0.0000

          k =-0.2667 0.6667-0.2667 (  1595 PWs)   bands (ev):

     6.8014  10.1524  13.2388  14.4109  17.3236  20.5865  21.2289  21.2346

     occupation numbers 
     1.0000   1.0000   1.0000   1.0000   0.0000   0.0000   0.0000   0.0000

          k = 0.6667-0.2667 0.6667 (  1579 PWs)   bands (ev):

     7.2880   9.4671  12.9282  14.5320  17.4136  20.7187  20.9469  22.2114

     occupation numbers 
     1.0000   1.0000   1.0000   1.0000   0.0000   0.0000   0.0000   0.0000

          k = 0.6000-0.2000 0.6000 (  1572 PWs)   bands (ev):

     7.2775   9.4862  12.7179  14.7464  17.6248  20.6589  20.7319  23.5093

     occupation numbers 
     1.0000   1.0000   1.0000   1.0000   0.0000   0.0000   0.0000   0.0000

          k = 0.5333-0.1333 0.5333 (  1584 PWs)   bands (ev):

     6.7844  10.1921  12.6232  15.0431  17.9510  20.5827  20.6334  23.1714

     occupation numbers 
     1.0000   1.0000   1.0000   1.0000   0.0000   0.0000   0.0000   0.0000

          k = 0.4667-0.0667 0.4667 (  1574 PWs)   bands (ev):

     6.2116  11.1500  12.6790  15.4013  18.3673  20.4256  20.6231  22.1325

     occupation numbers 
     1.0000   1.0000   1.0000   1.0000   0.0000   0.0000   0.0000   0.0000

          k = 0.4000 0.0000 0.4000 (  1580 PWs)   bands (ev):

     5.6994  12.0579  13.0398  15.7806  18.8103  20.0680  20.3907  21.6796

     occupation numbers 
     1.0000   1.0000   1.0000   1.0000   0.0000   0.0000   0.0000   0.0000

          k = 0.0000 0.5333 0.0000 (  1596 PWs)   bands (ev):

     5.5587  12.9208  14.3492  14.3492  16.5886  18.1927  22.4321  22.4321

     occupation numbers 
     1.0000   1.0000   1.0000   1.0000   0.0000   0.0000   0.0000   0.0000

          k =-0.0667 0.6000-0.0667 (  1587 PWs)   bands (ev):

     5.9376  12.1867  13.8933  14.1435  16.6495  17.8913  22.6980  22.7927

     occupation numbers 
     1.0000   1.0000   1.0000   1.0000   0.0000   0.0000   0.0000   0.0000

          k =-0.1333 0.6667-0.1333 (  1590 PWs)   bands (ev):

     6.4211  11.3360  13.2408  14.0392  16.7890  18.2828  22.5983  22.7064

     occupation numbers 
     1.0000   1.0000   1.0000   1.0000   0.0000   0.0000   0.0000   0.0000

          k =-0.2000 0.7333-0.2000 (  1593 PWs)   bands (ev):

     6.9827  10.4755  12.6493  14.0390  16.8087  19.2339  22.4185  22.4228

     occupation numbers 
     1.0000   1.0000   1.0000   1.0000   0.0000   0.0000   0.0000   0.0000

          k = 0.7333-0.2000 0.7333 (  1595 PWs)   bands (ev):

     7.5293   9.7505  12.1901  14.1422  16.8973  20.4049  22.1173  22.2799

     occupation numbers 
     1.0000   1.0000   1.0000   1.0000   0.0000   0.0000   0.0000   0.0000

          k = 0.6667-0.1333 0.6667 (  1583 PWs)   bands (ev):

[...]

     occupation numbers 
     1.0000   1.0000   1.0000   1.0000   0.0000   0.0000   0.0000   0.0000

          k = 0.8000-0.1333 0.8000 (  1595 PWs)   bands (ev):

     7.8376   9.7362  11.9795  13.8250  16.4880  18.9540  23.4303  23.6407

     occupation numbers 
     1.0000   1.0000   1.0000   1.0000   0.0000   0.0000   0.0000   0.0000

          k = 0.7333-0.0667 0.7333 (  1587 PWs)   bands (ev):

     8.1659   9.4280  11.4993  14.0051  16.6825  20.2575  23.1131  23.4708

     occupation numbers 
     1.0000   1.0000   1.0000   1.0000   0.0000   0.0000   0.0000   0.0000

          k = 0.6667-0.0000 0.6667 (  1578 PWs)   bands (ev):

     7.8520   9.7376  11.3528  14.2808  17.0021  21.5732  22.6181  23.3029

     occupation numbers 
     1.0000   1.0000   1.0000   1.0000   0.0000   0.0000   0.0000   0.0000

          k = 0.0000 0.8000 0.0000 (  1604 PWs)   bands (ev):

     7.1438  10.4393  13.6120  13.6120  15.9832  16.5605  24.8668  24.8668

     occupation numbers 
     1.0000   1.0000   1.0000   1.0000   1.0000   0.0000   0.0000   0.0000

          k =-0.0667 0.8667-0.0667 (  1594 PWs)   bands (ev):

     7.6554   9.8367  13.1536  13.5530  16.1187  16.6772  25.0731  25.1559

     occupation numbers 
     1.0000   1.0000   1.0000   1.0000   1.0000   0.0000   0.0000   0.0000

          k = 0.8667-0.0667 0.8667 (  1596 PWs)   bands (ev):

     8.2260   9.2911  12.3990  13.6006  16.2071  17.6101  24.8302  25.0658

     occupation numbers 
     1.0000   1.0000   1.0000   1.0000   1.0000   0.0000   0.0000   0.0000

          k = 0.8000-0.0000 0.8000 (  1596 PWs)   bands (ev):

     8.5469   9.0628  11.7544  13.7531  16.3809  18.8622  24.3030  24.9418

     occupation numbers 
     1.0000   1.0000   1.0000   1.0000   0.0000   0.0000   0.0000   0.0000

          k = 0.0000 0.9333 0.0000 (  1596 PWs)   bands (ev):

     8.1397   9.2475  13.4623  13.4623  15.9570  16.1418  26.0989  26.0989

     occupation numbers 
     1.0000   1.0000   1.0000   1.0000   1.0000   1.0000   0.0000   0.0000

          k = 0.9333-0.0000 0.9333 (  1588 PWs)   bands (ev):

     8.6782   8.7236  13.0641  13.4783  16.0619  16.5183  26.0549  26.2456

     occupation numbers 
     1.0000   1.0000   1.0000   1.0000   1.0000   0.0000   0.0000   0.0000

          k =-0.1333 0.2667-0.0000 (  1566 PWs)   bands (ev):

     4.6634  14.5390  15.1814  16.1889  18.2853  19.6208  19.9042  20.9633

     occupation numbers 
     1.0000   1.0000   1.0000   1.0000   0.0000   0.0000   0.0000   0.0000

          k =-0.2000 0.3333-0.0667 (  1575 PWs)   bands (ev):

     4.9673  13.4106  14.7018  15.9794  18.5126  19.5690  20.2837  20.7565

     occupation numbers 
     1.0000   1.0000   1.0000   1.0000   0.0000   0.0000   0.0000   0.0000

          k =-0.2667 0.4000-0.1333 (  1588 PWs)   bands (ev):

     5.3848  12.1705  14.4381  15.6763  18.6026  19.4225  20.3715  20.9891

     occupation numbers 
     1.0000   1.0000   1.0000   1.0000   0.0000   0.0000   0.0000   0.0000

          k =-0.3333 0.4667-0.2000 (  1585 PWs)   bands (ev):

     5.9017  11.0000  14.2793  15.3822  18.5340  19.1810  20.2469  21.7319

     occupation numbers 
     1.0000   1.0000   1.0000   1.0000   0.0000   0.0000   0.0000   0.0000

          k =-0.4000 0.5333-0.2667 (  1591 PWs)   bands (ev):

     6.4774   9.9774  14.1987  15.1493  18.4673  18.9406  20.0907  22.6736

     occupation numbers 
     1.0000   1.0000   1.0000   1.0000   0.0000   0.0000   0.0000   0.0000

          k = 0.5333-0.4000 0.6667 (  1576 PWs)   bands (ev):

     6.9650   9.2638  14.1705  15.0176  18.4508  18.7829  19.9985  23.2419

     occupation numbers 
     1.0000   1.0000   1.0000   1.0000   0.0000   0.0000   0.0000   0.0000

          k =-0.1333 0.4000-0.0000 (  1582 PWs)   bands (ev):

     5.0707  13.6071  14.4917  15.3452  17.6874  19.6554  20.6285  21.0922

     occupation numbers 
     1.0000   1.0000   1.0000   1.0000   0.0000   0.0000   0.0000   0.0000

          k =-0.2000 0.4667-0.0667 (  1576 PWs)   bands (ev):

     5.4503  12.5868  14.0111  15.0936  17.9361  19.5730  20.4569  21.4140

     occupation numbers 
     1.0000   1.0000   1.0000   1.0000   0.0000   0.0000   0.0000   0.0000

          k =-0.2667 0.5333-0.1333 (  1587 PWs)   bands (ev):

     5.9353  11.4646  13.7328  14.7974  18.0149  19.9804  20.3059  21.4121

     occupation numbers 
     1.0000   1.0000   1.0000   1.0000   0.0000   0.0000   0.0000   0.0000

          k =-0.3333 0.6000-0.2000 (  1589 PWs)   bands (ev):

     6.4983  10.4202  13.5280  14.5838  18.0010  19.7978  21.1444  21.2897

     occupation numbers 
     1.0000   1.0000   1.0000   1.0000   0.0000   0.0000   0.0000   0.0000

          k = 0.6000-0.3333 0.7333 (  1576 PWs)   bands (ev):

     7.0466   9.5893  13.3557  14.5121  18.0508  19.5382  21.1266  22.3450

     occupation numbers 
     1.0000   1.0000   1.0000   1.0000   0.0000   0.0000   0.0000   0.0000

          k = 0.5333-0.2667 0.6667 (  1579 PWs)   bands (ev):

     7.2531   9.3136  13.2189  14.5903  18.2064  19.3414  21.0421  23.5851

     occupation numbers 
     1.0000   1.0000   1.0000   1.0000   0.0000   0.0000   0.0000   0.0000

          k = 0.4667-0.2000 0.6000 (  1585 PWs)   bands (ev):

     6.8724   9.8410  13.1442  14.7954  18.4690  19.2259  21.0174  22.6613

     occupation numbers 
     1.0000   1.0000   1.0000   1.0000   0.0000   0.0000   0.0000   0.0000

          k = 0.4000-0.1333 0.5333 (  1584 PWs)   bands (ev):

     6.2997  10.7680  13.1607  15.0958  18.8200  19.1816  21.0273  21.5615

     occupation numbers 
     1.0000   1.0000   1.0000   1.0000   0.0000   0.0000   0.0000   0.0000

          k = 0.3333-0.0667 0.4667 (  1581 PWs)   bands (ev):

     5.7586  11.8354  13.3094  15.4508  19.1091  19.2325  20.6883  21.0223

     occupation numbers 
     1.0000   1.0000   1.0000   1.0000   0.0000   0.0000   0.0000   0.0000

          k = 0.2667-0.0000 0.4000 (  1577 PWs)   bands (ev):

     5.3081  12.8208  13.7412  15.7909  18.8431  19.5574  20.4386  20.7103

     occupation numbers 
     1.0000   1.0000   1.0000   1.0000   0.0000   0.0000   0.0000   0.0000

          k =-0.1333 0.5333-0.0000 (  1587 PWs)   bands (ev):

     5.6354  12.6266  13.9173  14.5138  17.1689  18.5266  21.6227  22.3340

     occupation numbers 
     1.0000   1.0000   1.0000   1.0000   0.0000   0.0000   0.0000   0.0000

          k =-0.2000 0.6000-0.0667 (  1587 PWs)   bands (ev):

     6.0855  11.7601  13.3917  14.2406  17.4165  18.6800  21.3907  22.6295

     occupation numbers 
     1.0000   1.0000   1.0000   1.0000   0.0000   0.0000   0.0000   0.0000

          k =-0.2667 0.6667-0.1333 (  1593 PWs)   bands (ev):

     6.6260  10.8159  12.9717  14.0511  17.4671  19.4770  21.0935  22.5858

     occupation numbers 
     1.0000   1.0000   1.0000   1.0000   0.0000   0.0000   0.0000   0.0000

          k = 0.6667-0.2667 0.8000 (  1580 PWs)   bands (ev):

     7.1982   9.9623  12.6201  14.0155  17.5232  20.3780  21.0187  22.4552

     occupation numbers 
     1.0000   1.0000   1.0000   1.0000   0.0000   0.0000   0.0000   0.0000

          k = 0.6000-0.2000 0.7333 (  1582 PWs)   bands (ev):

     7.5712   9.4789  12.3505  14.1236  17.6807  20.3878  21.9290  22.4499

     occupation numbers 
     1.0000   1.0000   1.0000   1.0000   0.0000   0.0000   0.0000   0.0000

          k = 0.5333-0.1333 0.6667 (  1581 PWs)   bands (ev):

     7.3442   9.7790  12.1891  14.3532  17.9521  20.2311  22.1290  22.6287

     occupation numbers 
     1.0000   1.0000   1.0000   1.0000   0.0000   0.0000   0.0000   0.0000

          k = 0.4667-0.0667 0.6000 (  1589 PWs)   bands (ev):

     6.7938  10.5598  12.1806  14.6802  18.3276  20.0963  21.4987  22.0445

     occupation numbers 
     1.0000   1.0000   1.0000   1.0000   0.0000   0.0000   0.0000   0.0000

          k = 0.4000-0.0000 0.5333 (  1584 PWs)   bands (ev):

     6.2368  11.3569  12.4752  15.0696  18.7781  19.7793  20.7673  21.7160

     occupation numbers 
     1.0000   1.0000   1.0000   1.0000   0.0000   0.0000   0.0000   0.0000

          k =-0.1333 0.6667-0.0000 (  1584 PWs)   bands (ev):

     6.3512  11.5545  13.4846  13.8486  16.7828  17.6415  22.6672  23.5926

     occupation numbers 
     1.0000   1.0000   1.0000   1.0000   0.0000   0.0000   0.0000   0.0000

          k =-0.2000 0.7333-0.0667 (  1601 PWs)   bands (ev):

     6.8630  10.8454  12.8663  13.6358  17.0139  18.0753  22.3829  23.8808

     occupation numbers 
     1.0000   1.0000   1.0000   1.0000   0.0000   0.0000   0.0000   0.0000

          k = 0.7333-0.2000 0.8667 (  1589 PWs)   bands (ev):

     7.4353  10.1305  12.2536  13.6068  17.0844  19.1026  22.0670  23.8129

     occupation numbers 
     1.0000   1.0000   1.0000   1.0000   0.0000   0.0000   0.0000   0.0000

          k = 0.6667-0.1333 0.8000 (  1592 PWs)   bands (ev):

     7.9170   9.5878  11.7909  13.7169  17.2308  20.3220  21.8187  23.6571

     occupation numbers 
     1.0000   1.0000   1.0000   1.0000   0.0000   0.0000   0.0000   0.0000

          k = 0.6000-0.0667 0.7333 (  1587 PWs)   bands (ev):

     7.8598   9.6699  11.5328  13.9461  17.4920  21.2184  22.0182  22.8216

     occupation numbers 
     1.0000   1.0000   1.0000   1.0000   0.0000   0.0000   0.0000   0.0000

          k = 0.5333-0.0000 0.6667 (  1581 PWs)   bands (ev):

     7.3516  10.1952  11.5943  14.2766  17.8646  21.0022  21.7375  22.8074

     occupation numbers 
     1.0000   1.0000   1.0000   1.0000   0.0000   0.0000   0.0000   0.0000

          k =-0.1333 0.8000-0.0000 (  1597 PWs)   bands (ev):

     7.2080  10.4137  13.2065  13.3979  16.5563  17.0266  23.7608  24.8607

     occupation numbers 
     1.0000   1.0000   1.0000   1.0000   0.0000   0.0000   0.0000   0.0000

          k = 0.8000-0.1333 0.9333 (  1592 PWs)   bands (ev):

     7.7658   9.8255  12.5201  13.3087  16.7604  17.7317  23.4592  25.1354

     occupation numbers 
     1.0000   1.0000   1.0000   1.0000   0.0000   0.0000   0.0000   0.0000

          k = 0.7333-0.0667 0.8667 (  1594 PWs)   bands (ev):

     8.3032   9.3373  11.8436  13.4063  16.8911  18.9190  23.1504  24.3746

     occupation numbers 
     1.0000   1.0000   1.0000   1.0000   0.0000   0.0000   0.0000   0.0000

          k = 0.6667-0.0000 0.8000 (  1593 PWs)   bands (ev):

     8.3288   9.3554  11.4378  13.6233  17.1333  20.2591  22.7629  23.1035

     occupation numbers 
     1.0000   1.0000   1.0000   1.0000   0.0000   0.0000   0.0000   0.0000

          k = 0.8667-0.0667 1.0000 (  1592 PWs)   bands (ev):

     8.1900   9.2721  13.0925  13.1519  16.5086  16.6580  24.9223  25.9671

     occupation numbers 
     1.0000   1.0000   1.0000   1.0000   0.0000   0.0000   0.0000   0.0000

          k = 0.8000-0.0000 0.9333 (  1596 PWs)   bands (ev):

     8.6943   8.8479  12.4032  13.2064  16.6741  17.6206  24.5557  24.7102

     occupation numbers 
     1.0000   1.0000   1.0000   1.0000   0.0000   0.0000   0.0000   0.0000

          k =-0.2667 0.5333-0.0000 (  1581 PWs)   bands (ev):

     5.8636  12.0175  13.1671  14.8136  18.3616  19.4019  20.2328  22.0695

     occupation numbers 
     1.0000   1.0000   1.0000   1.0000   0.0000   0.0000   0.0000   0.0000

          k =-0.3333 0.6000-0.0667 (  1585 PWs)   bands (ev):

     6.3757  11.1556  12.7579  14.4440  18.6268  19.6034  20.1621  22.3797

     occupation numbers 
     1.0000   1.0000   1.0000   1.0000   0.0000   0.0000   0.0000   0.0000

          k = 0.6000-0.3333 0.8667 (  1585 PWs)   bands (ev):

     6.9484  10.2428  12.6025  14.1341  18.6806  19.3886  21.0629  22.4151

     occupation numbers 
     1.0000   1.0000   1.0000   1.0000   0.0000   0.0000   0.0000   0.0000

          k = 0.5333-0.2667 0.8000 (  1576 PWs)   bands (ev):

     7.4398   9.5627  12.5515  13.9590  18.7418  19.1603  22.2147  22.4634

     occupation numbers 
     1.0000   1.0000   1.0000   1.0000   0.0000   0.0000   0.0000   0.0000

          k =-0.2667 0.6667-0.0000 (  1595 PWs)   bands (ev):

     6.5640  11.1995  12.7483  13.8402  17.9914  18.6391  21.0598  23.4528

     occupation numbers 
     1.0000   1.0000   1.0000   1.0000   0.0000   0.0000   0.0000   0.0000

          k = 0.6667-0.2667 0.9333 (  1595 PWs)   bands (ev):

     7.1211  10.4892  12.3258  13.5030  18.2380  19.3496  20.7297  23.7816

     occupation numbers 
     1.0000   1.0000   1.0000   1.0000   0.0000   0.0000   0.0000   0.0000

          k = 0.6000-0.2000 0.8667 (  1592 PWs)   bands (ev):

     7.6703   9.8067  12.0545  13.3560  18.3525  20.0666  20.8741  23.7580

     occupation numbers 
     1.0000   1.0000   1.0000   1.0000   0.0000   0.0000   0.0000   0.0000

          k = 0.5333-0.1333 0.8000 (  1579 PWs)   bands (ev):

     7.8728   9.5740  11.8832  13.4161  18.5511  19.9628  21.9282  22.5686

     occupation numbers 
     1.0000   1.0000   1.0000   1.0000   0.0000   0.0000   0.0000   0.0000

          k = 0.4667-0.0667 0.7333 (  1581 PWs)   bands (ev):

     7.4742  10.0526  11.8484  13.6506  18.8425  19.7926  21.0695  23.3853

     occupation numbers 
     1.0000   1.0000   1.0000   1.0000   0.0000   0.0000   0.0000   0.0000

          k = 0.4000-0.0000 0.6667 (  1585 PWs)   bands (ev):

     6.9058  10.7060  12.0825  14.0145  19.1990  19.4406  20.2365  23.2169

     occupation numbers 
     1.0000   1.0000   1.0000   1.0000   0.0000   0.0000   0.0000   0.0000

          k = 0.7333-0.2000 1.0000 (  1594 PWs)   bands (ev):

     7.3942  10.3014  12.5037  13.0867  17.7641  18.1169  22.0206  24.8329

     occupation numbers 
     1.0000   1.0000   1.0000   1.0000   0.0000   0.0000   0.0000   0.0000

          k = 0.6667-0.1333 0.9333 (  1591 PWs)   bands (ev):

     7.9631   9.7478  12.0214  12.8908  17.9960  19.0861  21.6833  24.0417

     occupation numbers 
     1.0000   1.0000   1.0000   1.0000   0.0000   0.0000   0.0000   0.0000

          k = 0.6000-0.0667 0.8667 (  1595 PWs)   bands (ev):

     8.3207   9.4197  11.6184  12.9850  18.1854  20.2986  21.4758  22.5885

     occupation numbers 
     1.0000   1.0000   1.0000   1.0000   0.0000   0.0000   0.0000   0.0000

          k = 0.5333-0.0000 0.8000 (  1587 PWs)   bands (ev):

     8.0178   9.7061  11.5045  13.2522  18.4750  20.7202  21.3452  22.1704

     occupation numbers 
     1.0000   1.0000   1.0000   1.0000   0.0000   0.0000   0.0000   0.0000

          k = 0.7333-0.0667 1.0000 (  1596 PWs)   bands (ev):

     8.3284   9.3213  12.4546  12.6334  17.6987  17.8107  23.1085  24.3111

     occupation numbers 
     1.0000   1.0000   1.0000   1.0000   0.0000   0.0000   0.0000   0.0000

          k = 0.6667-0.0000 0.9333 (  1603 PWs)   bands (ev):

     8.7156   9.0328  11.9034  12.6936  17.9142  18.9963  22.7481  22.8552

     occupation numbers 
     1.0000   1.0000   1.0000   1.0000   0.0000   0.0000   0.0000   0.0000

          k = 0.6000-0.2000 1.0000 (  1586 PWs)   bands (ev):

     7.6801  10.0524  11.8923  13.0241  19.2212  19.3584  20.4533  23.7649

     occupation numbers 
     1.0000   1.0000   1.0000   1.0000   0.0000   0.0000   0.0000   0.0000

          k = 0.5333-0.1333 0.9333 (  1591 PWs)   bands (ev):

     8.1855   9.5802  11.7151  12.7524  19.3308  19.8680  20.8679  22.3164

     occupation numbers 
     1.0000   1.0000   1.0000   1.0000   0.0000   0.0000   0.0000   0.0000

          k = 0.6000-0.0667 1.0000 (  1594 PWs)   bands (ev):

     8.5117   9.3251  11.9480  12.3118  19.1413  19.2043  21.3617  22.5057

     occupation numbers 
     1.0000   1.0000   1.0000   1.0000   0.0000   0.0000   0.0000   0.0000

          k = 0.5333-0.0000 0.9333 (  1591 PWs)   bands (ev):

     8.6628   9.2197  11.7370  12.3401  19.3532  20.2430  21.1598  21.3180

     occupation numbers 
     1.0000   1.0000   1.0000   1.0000   0.0000   0.0000   0.0000   0.0000

     the Fermi energy is    16.3064 ev

!    total energy              =              NaN Ry
     Harris-Foulkes estimate   =     -11.00470593 Ry
     estimated scf accuracy    <          7.1E-11 Ry

     convergence has been achieved in   2 iterations
     Warning: cannot save meta-gga kinetic terms: not implemented.

     Forces acting on atoms (Ry/au):

     atom    1 type  1   force =     0.00000000   -0.00000000   -0.00000000
     atom    2 type  1   force =    -0.00000000    0.00000000    0.00000000
     The non-local contrib.  to forces
     atom    1 type  1   force =     0.00000000    0.00000000    0.00000000
     atom    2 type  1   force =     0.00000000   -0.00000000    0.00000000
     The ionic contribution  to forces
     atom    1 type  1   force =     0.00000000    0.00000000   -0.00000000
     atom    2 type  1   force =    -0.00000000   -0.00000000    0.00000000
     The local contribution  to forces
     atom    1 type  1   force =    -0.00000000   -0.00000000    0.00000000
     atom    2 type  1   force =    -0.00000000    0.00000000   -0.00000000
     The core correction contribution to forces
     atom    1 type  1   force =     0.00000000    0.00000000    0.00000000
     atom    2 type  1   force =     0.00000000    0.00000000    0.00000000
     The Hubbard contrib.    to forces
     atom    1 type  1   force =     0.00000000    0.00000000    0.00000000
     atom    2 type  1   force =     0.00000000    0.00000000    0.00000000
     The SCF correction term to forces
     atom    1 type  1   force =    -0.00000000   -0.00000000    0.00000000
     atom    2 type  1   force =     0.00000000    0.00000000   -0.00000000

     Total force =     0.000000     Total SCF correction =     0.000000


     entering subroutine stress ...

     Message from routine stress:
     Meta-GGA and stress not implemented

     Entering Dynamics;  it =    25   time =  0.02323 pico-seconds

  new lattice vectors (alat unit) :
  -0.500000000   0.000000000   0.500000000
  -0.000000000   0.500000000   0.500000000
  -0.500000000   0.500000000  -0.000000000
  new unit-cell volume =    265.6194 (a.u.)^3
  new positions in cryst coord
Si      -0.000000000  -0.000000000   0.000000000
Si       0.250000000   0.250000000   0.250000000
  new positions in cart coord (alat unit)
Si       0.000000000  -0.000000000  -0.000000000
Si      -0.250000000   0.250000000   0.250000000

     Ekin =     0.00000000 Ry    T =    0.0 K  Etot =            NaN
     new unit-cell volume =    265.61940 a.u.^3 (    39.36073 Ang^3 )

CELL_PARAMETERS (alat= 10.20406600)
  -0.500000000   0.000000000   0.500000000
  -0.000000000   0.500000000   0.500000000
  -0.500000000   0.500000000  -0.000000000

ATOMIC_POSITIONS (crystal)
Si      -0.000000000  -0.000000000   0.000000000
Si       0.250000000   0.250000000   0.250000000



     Writing output data file Si.fd-3m.save
     NEW-OLD atomic charge density approx. for the potential

     total cpu time spent up to now is      602.2 secs

     Self-consistent Calculation

     iteration #  1     ecut=    50.00 Ry     beta=0.70
     Davidson diagonalization with overlap
forrtl: error (69): process interrupted (SIGINT)
Image              PC                Routine            Line        Source             
pw.x               00000001016BBC48  Unknown               Unknown  Unknown
libsystem_platfor  00007FFFABA69B3A  Unknown               Unknown  Unknown
pw.x               000000010116DD35  Unknown               Unknown  Unknown
pw.x               000000010116ADA2  Unknown               Unknown  Unknown
pw.x               000000010116A558  Unknown               Unknown  Unknown
pw.x               000000010100E164  Unknown               Unknown  Unknown
pw.x               0000000100FF1AA3  Unknown               Unknown  Unknown
pw.x               0000000100FEFAFC  Unknown               Unknown  Unknown
pw.x               000000010107EE09  Unknown               Unknown  Unknown
pw.x               000000010107C77D  Unknown               Unknown  Unknown
pw.x               0000000101275B27  Unknown               Unknown  Unknown
pw.x               0000000100FB7570  Unknown               Unknown  Unknown
pw.x               0000000100FB726E  Unknown               Unknown  Unknown
